<?xml version="1.0" encoding="ISO-8859-1"?>
<modeling>
 <generator>
  <i name="program" type="string">vasp </i>
  <i name="version" type="string">6.3.1  </i>
  <i name="subversion" type="string">04May22 (build May 31 2024 12:10:13) complex                          parallel </i>
  <i name="platform" type="string">LinuxIFC </i>
  <i name="date" type="string">2024 06 19 </i>
  <i name="time" type="string">10:08:21 </i>
 </generator>
 <incar>
  <i type="string" name="SYSTEM">bulk relax</i>
  <i type="int" name="ISTART">     0</i>
  <i type="string" name="PREC">High</i>
  <i type="string" name="ALGO">Normal</i>
  <i type="int" name="ISPIN">     2</i>
  <i type="int" name="MAXMIX">    14</i>
  <i type="int" name="ICHARG">     2</i>
  <i type="int" name="NELM">   150</i>
  <i type="int" name="NELMIN">     8</i>
  <i type="int" name="IBRION">     5</i>
  <i type="int" name="NFREE">     2</i>
  <i name="EDIFF">      0.00000100</i>
  <i name="EDIFFG">     -0.03000000</i>
  <i type="int" name="NSW">     1</i>
  <i type="int" name="ISIF">     2</i>
  <i type="int" name="ISYM">     0</i>
  <i name="ENCUT">    500.00000000</i>
  <i name="POTIM">      0.01500000</i>
  <i type="string" name="LREAL">Auto</i>
  <i type="int" name="ISMEAR">     1</i>
  <i name="SIGMA">      0.10000000</i>
  <i type="logical" name="LWAVE"> F  </i>
  <i type="logical" name="LCHARG"> F  </i>
  <i type="string" name="GGA">PE</i>
  <i type="int" name="IVDW">    12</i>
 </incar>
 <primitive_cell>
  <structure name="primitive_cell" >
   <crystal>
    <varray name="basis" >
     <v>      31.25823600       0.00000000       0.00000000 </v>
     <v>       0.00000000      31.25823600       0.00000000 </v>
     <v>       0.00000000       0.00000000      31.25823600 </v>
    </varray>
    <i name="volume">  30541.71339103 </i>
    <varray name="rec_basis" >
     <v>       0.03199157       0.00000000       0.00000000 </v>
     <v>       0.00000000       0.03199157       0.00000000 </v>
     <v>       0.00000000       0.00000000       0.03199157 </v>
    </varray>
   </crystal>
   <varray name="positions" >
    <v>       0.50000000       0.50000000       0.50000000 </v>
    <v>       0.52024201       0.52024201       0.52024201 </v>
    <v>       0.47975799       0.47975799       0.52024201 </v>
    <v>       0.52024201       0.47975799       0.47975799 </v>
    <v>       0.47975799       0.52024201       0.47975799 </v>
   </varray>
  </structure>
  <varray name="primitive_index" >
   <v type="int" >        1 </v>
   <v type="int" >        2 </v>
   <v type="int" >        3 </v>
   <v type="int" >        4 </v>
   <v type="int" >        5 </v>
  </varray>
 </primitive_cell>
 <kpoints>
  <generation param="Gamma">
   <v type="int" name="divisions">       1        1        1 </v>
   <v name="usershift">      0.00000000       0.00000000       0.00000000 </v>
   <v name="genvec1">      1.00000000       0.00000000       0.00000000 </v>
   <v name="genvec2">      0.00000000       1.00000000       0.00000000 </v>
   <v name="genvec3">      0.00000000       0.00000000       1.00000000 </v>
   <v name="shift">      0.00000000       0.00000000       0.00000000 </v>
  </generation>
  <varray name="kpointlist" >
   <v>       0.00000000       0.00000000       0.00000000 </v>
  </varray>
  <varray name="weights" >
   <v>       1.00000000 </v>
  </varray>
 </kpoints>
 <parameters>
  <separator name="general" >
   <i type="string" name="SYSTEM">bulk relax</i>
   <i type="logical" name="LCOMPAT"> F  </i>
  </separator>
  <separator name="electronic" >
   <i type="string" name="PREC">high</i>
   <i name="ENMAX">    500.00000000</i>
   <i name="ENAUG">    644.87300000</i>
   <i name="EDIFF">      0.00000100</i>
   <i type="int" name="IALGO">    38</i>
   <i type="int" name="IWAVPR">    11</i>
   <i type="int" name="NBANDS">    12</i>
   <i type="int" name="NBANDSLOW">    -1</i>
   <i type="int" name="NBANDSHIGH">    -1</i>
   <i name="NELECT">      8.00000000</i>
   <i type="int" name="TURBO">     0</i>
   <i type="int" name="IRESTART">     0</i>
   <i type="int" name="NREBOOT">     0</i>
   <i type="int" name="NMIN">     0</i>
   <i name="EREF">      0.00000000</i>
   <separator name="electronic smearing" >
    <i type="int" name="ISMEAR">     1</i>
    <i name="SIGMA">      0.10000000</i>
    <i name="KSPACING">      0.50000000</i>
    <i type="logical" name="KGAMMA"> T  </i>
    <i type="logical" name="KBLOWUP"> T  </i>
   </separator>
   <separator name="electronic projectors" >
    <i type="logical" name="LREAL"> T  </i>
    <v name="ROPT">     -0.00040000     -0.00040000</v>
    <i type="int" name="LMAXPAW">  -100</i>
    <i type="int" name="LMAXMIX">     2</i>
    <i type="logical" name="NLSPLINE"> F  </i>
   </separator>
   <separator name="electronic startup" >
    <i type="int" name="ISTART">     0</i>
    <i type="int" name="ICHARG">     2</i>
    <i type="int" name="INIWAV">     1</i>
   </separator>
   <separator name="electronic spin" >
    <i type="int" name="ISPIN">     2</i>
    <i type="logical" name="LNONCOLLINEAR"> F  </i>
    <v name="MAGMOM">      1.00000000      1.00000000      1.00000000      1.00000000      1.00000000</v>
    <i name="NUPDOWN">     -1.00000000</i>
    <i type="logical" name="LSORBIT"> F  </i>
    <v name="SAXIS">      0.00000000      0.00000000      1.00000000</v>
    <i type="logical" name="LSPIRAL"> F  </i>
    <v name="QSPIRAL">      0.00000000      0.00000000      0.00000000</v>
    <i type="logical" name="LZEROZ"> F  </i>
   </separator>
   <separator name="electronic exchange-correlation" >
    <i type="logical" name="LASPH"> F  </i>
    <i type="logical" name="LMETAGGA"> F  </i>
   </separator>
   <separator name="electronic convergence" >
    <i type="int" name="NELM">   150</i>
    <i type="int" name="NELMDL">    -5</i>
    <i type="int" name="NELMIN">     8</i>
    <i name="ENINI">    500.00000000</i>
    <separator name="electronic convergence detail" >
     <i type="logical" name="LDIAG"> T  </i>
     <i type="logical" name="LSUBROT"> F  </i>
     <i name="WEIMIN">      0.00100000</i>
     <i name="EBREAK">      0.00000002</i>
     <i name="DEPER">      0.30000000</i>
     <i type="int" name="NRMM">     4</i>
     <i name="TIME">      0.40000000</i>
    </separator>
   </separator>
   <separator name="electronic mixer" >
    <i name="AMIX">      0.40000000</i>
    <i name="BMIX">      1.00000000</i>
    <i name="AMIN">      0.10000000</i>
    <i name="AMIX_MAG">      1.60000000</i>
    <i name="BMIX_MAG">      1.00000000</i>
    <separator name="electronic mixer details" >
     <i type="int" name="IMIX">     4</i>
     <i type="logical" name="MIXFIRST"> F  </i>
     <i type="int" name="MAXMIX">    14</i>
     <i name="WC">    100.00000000</i>
     <i type="int" name="INIMIX">     1</i>
     <i type="int" name="MIXPRE">     1</i>
     <i type="int" name="MREMOVE">     5</i>
    </separator>
   </separator>
   <separator name="electronic dipolcorrection" >
    <i type="logical" name="LDIPOL"> F  </i>
    <i type="logical" name="LMONO"> F  </i>
    <i type="int" name="IDIPOL">     0</i>
    <i name="EPSILON">      1.00000000</i>
    <v name="DIPOL">   -100.00000000   -100.00000000   -100.00000000</v>
    <i name="EFIELD">      0.00000000</i>
   </separator>
  </separator>
  <separator name="grids" >
   <i type="int" name="NGX">   240</i>
   <i type="int" name="NGY">   240</i>
   <i type="int" name="NGZ">   240</i>
   <i type="int" name="NGXF">   350</i>
   <i type="int" name="NGYF">   350</i>
   <i type="int" name="NGZF">   350</i>
   <i type="logical" name="ADDGRID"> F  </i>
  </separator>
  <separator name="ionic" >
   <i type="int" name="NSW">    97</i>
   <i type="int" name="IBRION">     5</i>
   <i type="int" name="MDALGO">     0</i>
   <i type="int" name="ISIF">     2</i>
   <i name="PSTRESS">      0.00000000</i>
   <i name="EDIFFG">     -0.03000000</i>
   <i type="int" name="NFREE">     2</i>
   <i name="POTIM">      0.01500000</i>
   <i name="SMASS">     -3.00000000</i>
   <i name="SCALEE">      1.00000000</i>
  </separator>
  <separator name="ionic md" >
   <i name="TEBEG">      0.00010000</i>
   <i name="TEEND">      0.00010000</i>
   <i type="int" name="NBLOCK">     1</i>
   <i type="int" name="KBLOCK">    97</i>
   <i type="int" name="NPACO">   256</i>
   <i name="APACO">     10.00000000</i>
  </separator>
  <separator name="symmetry" >
   <i type="int" name="ISYM">     0</i>
   <i name="SYMPREC">      0.00001000</i>
  </separator>
  <separator name="dos" >
   <i type="int" name="LORBIT">     0</i>
   <v name="RWIGS">     -1.00000000     -1.00000000</v>
   <i type="int" name="NEDOS">   301</i>
   <i name="EMIN">     10.00000000</i>
   <i name="EMAX">    -10.00000000</i>
   <i name="EFERMI">      0.00000000</i>
  </separator>
  <separator name="writing" >
   <i type="int" name="NWRITE">     2</i>
   <i type="logical" name="LWAVE"> F  </i>
   <i type="logical" name="LDOWNSAMPLE"> F  </i>
   <i type="logical" name="LCHARG"> F  </i>
   <i type="logical" name="LPARD"> F  </i>
   <i type="logical" name="LVTOT"> F  </i>
   <i type="logical" name="LVHAR"> F  </i>
   <i type="logical" name="LELF"> F  </i>
   <i type="logical" name="LOPTICS"> F  </i>
   <v name="STM">      0.00000000      0.00000000      0.00000000      0.00000000      0.00000000      0.00000000      0.00000000</v>
  </separator>
  <separator name="performance" >
   <i type="int" name="NPAR">    12</i>
   <i type="int" name="NSIM">     4</i>
   <i type="int" name="NBLK">    -1</i>
   <i type="logical" name="LPLANE"> T  </i>
   <i type="logical" name="LSCALAPACK"> T  </i>
   <i type="logical" name="LSCAAWARE"> F  </i>
   <i type="logical" name="LSCALU"> F  </i>
   <i type="logical" name="LASYNC"> F  </i>
   <i type="logical" name="LORBITALREAL"> F  </i>
  </separator>
  <separator name="miscellaneous" >
   <i type="int" name="IDIOT">     3</i>
   <i type="int" name="PHON_NSTRUCT">    -1</i>
   <i type="logical" name="LMUSIC"> F  </i>
   <v name="POMASS">     12.01100000      1.00000000</v>
   <v name="DARWINR">      0.00000000      0.00000000</v>
   <v name="DARWINV">      1.00000000      1.00000000</v>
   <i type="logical" name="LCORR"> T  </i>
  </separator>
  <i type="logical" name="GGA_COMPAT"> T  </i>
  <i type="logical" name="LBERRY"> F  </i>
  <i type="int" name="ICORELEVEL">     0</i>
  <i type="logical" name="LDAU"> F  </i>
  <i type="int" name="I_CONSTRAINED_M">     0</i>
  <separator name="electronic exchange-correlation" >
   <i type="string" name="GGA">PE</i>
   <i type="int" name="VOSKOWN">     0</i>
   <i type="logical" name="LHFCALC"> F  </i>
   <i type="string" name="PRECFOCK"></i>
   <i type="logical" name="LSYMGRAD"> F  </i>
   <i type="logical" name="LHFONE"> F  </i>
   <i type="logical" name="LRHFCALC"> F  </i>
   <i type="logical" name="LTHOMAS"> F  </i>
   <i type="logical" name="LMODELHF"> F  </i>
   <i type="logical" name="LFOCKACE"> F  </i>
   <i name="ENCUT4O">     -1.00000000</i>
   <i type="int" name="EXXOEP">     0</i>
   <i type="int" name="FOURORBIT">     0</i>
   <i name="AEXX">      0.00000000</i>
   <i name="HFALPHA">      0.00000000</i>
   <i name="MCALPHA">      0.00000000</i>
   <i name="ALDAX">      1.00000000</i>
   <i name="AGGAX">      1.00000000</i>
   <i name="ALDAC">      1.00000000</i>
   <i name="AGGAC">      1.00000000</i>
   <i type="int" name="NKREDX">     1</i>
   <i type="int" name="NKREDY">     1</i>
   <i type="int" name="NKREDZ">     1</i>
   <i type="logical" name="SHIFTRED"> F  </i>
   <i type="logical" name="ODDONLY"> F  </i>
   <i type="logical" name="EVENONLY"> F  </i>
   <i type="int" name="LMAXFOCK">     0</i>
   <i type="int" name="NMAXFOCKAE">     0</i>
   <i type="logical" name="LFOCKAEDFT"> F  </i>
   <i name="HFSCREEN">      0.00000000</i>
   <i name="HFSCREENC">      0.00000000</i>
   <i type="int" name="NBANDSGWLOW">     0</i>
  </separator>
  <separator name="vdW DFT" >
   <i type="logical" name="LUSE_VDW"> F  </i>
   <i name="Zab_VDW">     -0.84910000</i>
   <i name="PARAM1">      0.12340000</i>
   <i name="PARAM2">      1.00000000</i>
   <i name="PARAM3">      0.00000000</i>
  </separator>
  <separator name="model GW" >
   <i type="int" name="MODEL_GW">     0</i>
   <i name="MODEL_EPS0">   3665.00560692</i>
   <i name="MODEL_ALPHA">      1.00000000</i>
  </separator>
  <separator name="linear response parameters" >
   <i type="logical" name="LEPSILON"> F  </i>
   <i type="logical" name="LRPA"> F  </i>
   <i type="logical" name="LNABLA"> F  </i>
   <i type="logical" name="LVEL"> F  </i>
   <i name="CSHIFT">      0.10000000</i>
   <i name="OMEGAMAX">     -1.00000000</i>
   <i name="DEG_THRESHOLD">      0.00200000</i>
   <i name="RTIME">     -0.10000000</i>
   <i name="WPLASMAI">      0.00000000</i>
   <v name="DFIELD">      0.00000000      0.00000000      0.00000000</v>
   <v name="WPLASMA">      0.00000000      0.00000000      0.00000000      0.00000000      0.00000000      0.00000000      0.00000000      0.00000000      0.00000000</v>
  </separator>
  <separator name="orbital magnetization" >
   <i type="logical" name="NUCIND"> F  </i>
   <v name="MAGPOS">      0.00000000      0.00000000      0.00000000</v>
   <i type="logical" name="LNICSALL"> T  </i>
   <i type="logical" name="ORBITALMAG"> F  </i>
   <i type="logical" name="LMAGBLOCH"> F  </i>
   <i type="logical" name="LCHIMAG"> F  </i>
   <i type="logical" name="LGAUGE"> T  </i>
   <i type="int" name="MAGATOM">     0</i>
   <v name="MAGDIPOL">      0.00000000      0.00000000      0.00000000</v>
   <v name="AVECCONST">      0.00000000      0.00000000      0.00000000</v>
  </separator>
  <separator name="response functions" >
   <i type="logical" name="LFINITE_TEMPERATURE"> F  </i>
   <i type="logical" name="LADDER"> F  </i>
   <i type="logical" name="LRPAFORCE"> F  </i>
   <i type="logical" name="LFXC"> F  </i>
   <i type="logical" name="LHARTREE"> T  </i>
   <i type="int" name="IBSE">     0</i>
   <v type="int" name="KPOINT">    -1     0     0     0</v>
   <i type="logical" name="LTCTC"> F  </i>
   <i type="logical" name="LTCTE"> F  </i>
   <i type="logical" name="LTETE"> F  </i>
   <i type="logical" name="LTRIPLET"> F  </i>
   <i type="logical" name="LFXCEPS"> F  </i>
   <i type="logical" name="LFXHEG"> F  </i>
   <i type="int" name="NATURALO">     2</i>
   <i type="logical" name="LHOLEGF"> F  </i>
   <i type="logical" name="L2ORDER"> F  </i>
   <i type="logical" name="LDMP1"> F  </i>
   <i type="logical" name="LMP2LT"> F  </i>
   <i type="logical" name="LSMP2LT"> F  </i>
   <i type="logical" name="LGWLF"> F  </i>
   <i name="ENCUTGW">     -2.00000000</i>
   <i name="ENCUTGWSOFT">     -2.00000000</i>
   <i name="ENCUTLF">     -1.00000000</i>
   <i type="logical" name="LESF_SPLINES"> F  </i>
   <i type="int" name="LMAXMP2">    -1</i>
   <i name="SCISSOR">      0.00000000</i>
   <i type="int" name="NOMEGA">     0</i>
   <i type="int" name="NOMEGAR">     0</i>
   <i type="int" name="NBANDSGW">    -1</i>
   <i type="int" name="NBANDSO">    -1</i>
   <i type="int" name="NBANDSV">    -1</i>
   <i type="int" name="NELMGW">     1</i>
   <i type="int" name="NELMHF">     1</i>
   <i type="int" name="DIM">     3</i>
   <i type="int" name="IESPILON">     4</i>
   <i type="int" name="ANTIRES">     0</i>
   <i name="OMEGAMAX">    -30.00000000</i>
   <i name="OMEGAMIN">    -30.00000000</i>
   <i name="OMEGATL">   -200.00000000</i>
   <i type="int" name="OMEGAGRID">     0</i>
   <i name="CSHIFT">     -0.10000000</i>
   <i type="logical" name="LSELFENERGY"> F  </i>
   <i type="logical" name="LSPECTRAL"> F  </i>
   <i type="logical" name="LSPECTRALGW"> F  </i>
   <i type="logical" name="LSINGLES"> F  </i>
   <i type="logical" name="LFERMIGW"> F  </i>
   <i type="logical" name="ODDONLYGW"> F  </i>
   <i type="logical" name="EVENONLYGW"> F  </i>
   <i type="int" name="NKREDLFX">     1</i>
   <i type="int" name="NKREDLFY">     1</i>
   <i type="int" name="NKREDLFZ">     1</i>
   <i type="int" name="MAXMEM">  2800</i>
   <i type="int" name="TELESCOPE">     0</i>
   <i type="int" name="NTAUPAR">    -1</i>
   <i type="int" name="NOMEGAPAR">    -1</i>
   <i name="DAMP_NEWTON">      0.80000001</i>
   <i name="LAMBDA">      1.00000000</i>
  </separator>
  <separator name="External order field" >
   <i name="OFIELD_KAPPA">      0.00000000</i>
   <v name="OFIELD_K">      0.00000000      0.00000000      0.00000000</v>
   <i name="OFIELD_Q6_NEAR">      0.00000000</i>
   <i name="OFIELD_Q6_FAR">      0.00000000</i>
   <i name="OFIELD_A">      0.00000000</i>
  </separator>
  <separator name="optional k-points parameters" >
   <i type="int" name="KPOINTS_OPT_MODE">     1</i>
   <i type="logical" name="LKPOINTS_OPT"> F  </i>
  </separator>
 </parameters>
 <atominfo>
  <atoms>       5 </atoms>
  <types>       2 </types>
  <array name="atoms" >
   <dimension dim="1">ion</dimension>
   <field type="string">element</field>
   <field type="int">atomtype</field>
   <set>
    <rc><c>C </c><c>   1</c></rc>
    <rc><c>H </c><c>   2</c></rc>
    <rc><c>H </c><c>   2</c></rc>
    <rc><c>H </c><c>   2</c></rc>
    <rc><c>H </c><c>   2</c></rc>
   </set>
  </array>
  <array name="atomtypes" >
   <dimension dim="1">type</dimension>
   <field type="int">atomspertype</field>
   <field type="string">element</field>
   <field>mass</field>
   <field>valence</field>
   <field type="string">pseudopotential</field>
   <set>
    <rc><c>   1</c><c>C </c><c>     12.01100000</c><c>      4.00000000</c><c>  PAW_PBE C 08Apr2002                   </c></rc>
    <rc><c>   4</c><c>H </c><c>      1.00000000</c><c>      1.00000000</c><c>  PAW_PBE H 15Jun2001                   </c></rc>
   </set>
  </array>
 </atominfo>
 <structure name="initialpos" >
  <crystal>
   <varray name="basis" >
    <v>      31.25823600       0.00000000       0.00000000 </v>
    <v>       0.00000000      31.25823600       0.00000000 </v>
    <v>       0.00000000       0.00000000      31.25823600 </v>
   </varray>
   <i name="volume">  30541.71339103 </i>
   <varray name="rec_basis" >
    <v>       0.03199157       0.00000000       0.00000000 </v>
    <v>       0.00000000       0.03199157       0.00000000 </v>
    <v>       0.00000000       0.00000000       0.03199157 </v>
   </varray>
  </crystal>
  <varray name="positions" >
   <v>       0.50000000       0.50000000       0.50000000 </v>
   <v>       0.52024201       0.52024201       0.52024201 </v>
   <v>       0.47975799       0.47975799       0.52024201 </v>
   <v>       0.52024201       0.47975799       0.47975799 </v>
   <v>       0.47975799       0.52024201       0.47975799 </v>
  </varray>
 </structure>
 <calculation>
  <scstep>
   <time name="dav">    4.97    4.98</time>
   <time name="total">    9.28    9.32</time>
   <energy>
    <i name="alphaZ">      0.00793180 </i>
    <i name="ewald">    216.72059744 </i>
    <i name="hartreedc">   -329.97692237 </i>
    <i name="XCdc">     23.57754547 </i>
    <i name="pawpsdc">    115.57111737 </i>
    <i name="pawaedc">   -116.16515559 </i>
    <i name="eentropy">     -0.00945170 </i>
    <i name="bandstr">    -65.59626724 </i>
    <i name="atom">    197.09414118 </i>
    <i name="e_fr_energy">     41.22353634 </i>
    <i name="e_wo_entrp">     41.23298804 </i>
    <i name="e_0_energy">     41.22668690 </i>
   </energy>
  </scstep>
  <scstep>
   <time name="dav">    4.97    4.98</time>
   <time name="total">    4.97    4.98</time>
   <energy>
    <i name="e_fr_energy">     -6.53180144 </i>
    <i name="e_wo_entrp">     -6.53470040 </i>
    <i name="e_0_energy">     -6.53276776 </i>
   </energy>
  </scstep>
  <scstep>
   <time name="dav">    4.37    4.37</time>
   <time name="total">    4.37    4.37</time>
   <energy>
    <i name="e_fr_energy">    -18.77426668 </i>
    <i name="e_wo_entrp">    -18.77717108 </i>
    <i name="e_0_energy">    -18.77523481 </i>
   </energy>
  </scstep>
  <scstep>
   <time name="dav">    4.37    4.37</time>
   <time name="total">    4.38    4.38</time>
   <energy>
    <i name="e_fr_energy">    -19.91124859 </i>
    <i name="e_wo_entrp">    -19.91998648 </i>
    <i name="e_0_energy">    -19.91416122 </i>
   </energy>
  </scstep>
  <scstep>
   <time name="dav">    3.79    3.79</time>
   <time name="total">    5.16    5.17</time>
   <energy>
    <i name="e_fr_energy">    -19.93719880 </i>
    <i name="e_wo_entrp">    -19.94589568 </i>
    <i name="e_0_energy">    -19.94009776 </i>
   </energy>
  </scstep>
  <scstep>
   <time name="dav">    3.80    3.80</time>
   <time name="total">    9.45    9.47</time>
   <energy>
    <i name="e_fr_energy">     -7.97932489 </i>
    <i name="e_wo_entrp">     -7.98802198 </i>
    <i name="e_0_energy">     -7.98222392 </i>
   </energy>
  </scstep>
  <scstep>
   <time name="dav">    4.36    4.36</time>
   <time name="total">   10.00   10.00</time>
   <energy>
    <i name="e_fr_energy">    -17.59900694 </i>
    <i name="e_wo_entrp">    -17.60770396 </i>
    <i name="e_0_energy">    -17.60190595 </i>
   </energy>
  </scstep>
  <scstep>
   <time name="dav">    4.38    4.38</time>
   <time name="total">   10.03   10.03</time>
   <energy>
    <i name="e_fr_energy">    -19.20932321 </i>
    <i name="e_wo_entrp">    -19.21802042 </i>
    <i name="e_0_energy">    -19.21222228 </i>
   </energy>
  </scstep>
  <scstep>
   <time name="dav">    3.26    3.26</time>
   <time name="total">    8.93    8.94</time>
   <energy>
    <i name="e_fr_energy">    -22.20586553 </i>
    <i name="e_wo_entrp">    -22.22096301 </i>
    <i name="e_0_energy">    -22.21089802 </i>
   </energy>
  </scstep>
  <scstep>
   <time name="dav">    4.38    4.38</time>
   <time name="total">   10.03   10.03</time>
   <energy>
    <i name="e_fr_energy">    -23.01536396 </i>
    <i name="e_wo_entrp">    -23.02569842 </i>
    <i name="e_0_energy">    -23.01880878 </i>
   </energy>
  </scstep>
  <scstep>
   <time name="dav">    3.22    3.22</time>
   <time name="total">    8.89    8.90</time>
   <energy>
    <i name="e_fr_energy">    -23.27911575 </i>
    <i name="e_wo_entrp">    -23.29789892 </i>
    <i name="e_0_energy">    -23.28537680 </i>
   </energy>
  </scstep>
  <scstep>
   <time name="dav">    3.23    3.23</time>
   <time name="total">    9.15    9.16</time>
   <energy>
    <i name="e_fr_energy">    -23.42814281 </i>
    <i name="e_wo_entrp">    -23.43850160 </i>
    <i name="e_0_energy">    -23.43159574 </i>
   </energy>
  </scstep>
  <scstep>
   <time name="dav">    3.80    3.80</time>
   <time name="total">    9.48    9.49</time>
   <energy>
    <i name="e_fr_energy">    -23.41278322 </i>
    <i name="e_wo_entrp">    -23.42689493 </i>
    <i name="e_0_energy">    -23.41748712 </i>
   </energy>
  </scstep>
  <scstep>
   <time name="dav">    5.50    5.50</time>
   <time name="total">   11.19   11.20</time>
   <energy>
    <i name="e_fr_energy">    -23.48696153 </i>
    <i name="e_wo_entrp">    -23.50241542 </i>
    <i name="e_0_energy">    -23.49211283 </i>
   </energy>
  </scstep>
  <scstep>
   <time name="dav">    3.81    3.81</time>
   <time name="total">    9.49    9.51</time>
   <energy>
    <i name="e_fr_energy">    -23.60682754 </i>
    <i name="e_wo_entrp">    -23.62163526 </i>
    <i name="e_0_energy">    -23.61176345 </i>
   </energy>
  </scstep>
  <scstep>
   <time name="dav">    3.24    3.24</time>
   <time name="total">    8.99    9.00</time>
   <energy>
    <i name="e_fr_energy">    -23.69674047 </i>
    <i name="e_wo_entrp">    -23.71598269 </i>
    <i name="e_0_energy">    -23.70315454 </i>
   </energy>
  </scstep>
  <scstep>
   <time name="dav">    3.22    3.22</time>
   <time name="total">    8.92    8.92</time>
   <energy>
    <i name="e_fr_energy">    -23.78295694 </i>
    <i name="e_wo_entrp">    -23.79734558 </i>
    <i name="e_0_energy">    -23.78775315 </i>
   </energy>
  </scstep>
  <scstep>
   <time name="dav">    4.95    4.95</time>
   <time name="total">   10.69   10.70</time>
   <energy>
    <i name="e_fr_energy">    -23.82265556 </i>
    <i name="e_wo_entrp">    -23.83942628 </i>
    <i name="e_0_energy">    -23.82824580 </i>
   </energy>
  </scstep>
  <scstep>
   <time name="dav">    4.94    4.94</time>
   <time name="total">   10.63   10.63</time>
   <energy>
    <i name="e_fr_energy">    -23.83341027 </i>
    <i name="e_wo_entrp">    -23.84744210 </i>
    <i name="e_0_energy">    -23.83808754 </i>
   </energy>
  </scstep>
  <scstep>
   <time name="dav">    3.22    3.22</time>
   <time name="total">    8.89    8.90</time>
   <energy>
    <i name="e_fr_energy">    -23.89054513 </i>
    <i name="e_wo_entrp">    -23.90632646 </i>
    <i name="e_0_energy">    -23.89580557 </i>
   </energy>
  </scstep>
  <scstep>
   <time name="dav">    4.96    4.96</time>
   <time name="total">   10.67   10.68</time>
   <energy>
    <i name="e_fr_energy">    -23.92249482 </i>
    <i name="e_wo_entrp">    -23.93826200 </i>
    <i name="e_0_energy">    -23.92775054 </i>
   </energy>
  </scstep>
  <scstep>
   <time name="dav">    4.37    4.37</time>
   <time name="total">   10.05   10.07</time>
   <energy>
    <i name="e_fr_energy">    -23.92747089 </i>
    <i name="e_wo_entrp">    -23.94318326 </i>
    <i name="e_0_energy">    -23.93270835 </i>
   </energy>
  </scstep>
  <scstep>
   <time name="dav">    4.94    4.94</time>
   <time name="total">   10.63   10.63</time>
   <energy>
    <i name="e_fr_energy">    -23.93382895 </i>
    <i name="e_wo_entrp">    -23.94964351 </i>
    <i name="e_0_energy">    -23.93910047 </i>
   </energy>
  </scstep>
  <scstep>
   <time name="dav">    3.22    3.22</time>
   <time name="total">    8.87    8.88</time>
   <energy>
    <i name="e_fr_energy">    -23.95077913 </i>
    <i name="e_wo_entrp">    -23.96636780 </i>
    <i name="e_0_energy">    -23.95597535 </i>
   </energy>
  </scstep>
  <scstep>
   <time name="dav">    4.36    4.37</time>
   <time name="total">   10.03   10.05</time>
   <energy>
    <i name="e_fr_energy">    -23.96925772 </i>
    <i name="e_wo_entrp">    -23.98503072 </i>
    <i name="e_0_energy">    -23.97451538 </i>
   </energy>
  </scstep>
  <scstep>
   <time name="dav">    4.94    4.94</time>
   <time name="total">   10.63   10.63</time>
   <energy>
    <i name="e_fr_energy">    -23.97325592 </i>
    <i name="e_wo_entrp">    -23.98889390 </i>
    <i name="e_0_energy">    -23.97846858 </i>
   </energy>
  </scstep>
  <scstep>
   <time name="dav">    3.24    3.24</time>
   <time name="total">    8.92    8.93</time>
   <energy>
    <i name="e_fr_energy">    -23.98031374 </i>
    <i name="e_wo_entrp">    -23.99614726 </i>
    <i name="e_0_energy">    -23.98559158 </i>
   </energy>
  </scstep>
  <scstep>
   <time name="dav">    4.38    4.38</time>
   <time name="total">   10.07   10.07</time>
   <energy>
    <i name="e_fr_energy">    -23.99842078 </i>
    <i name="e_wo_entrp">    -24.01423428 </i>
    <i name="e_0_energy">    -24.00369195 </i>
   </energy>
  </scstep>
  <scstep>
   <time name="dav">    4.93    4.93</time>
   <time name="total">   10.60   10.60</time>
   <energy>
    <i name="e_fr_energy">    -24.00606113 </i>
    <i name="e_wo_entrp">    -24.02182193 </i>
    <i name="e_0_energy">    -24.01131473 </i>
   </energy>
  </scstep>
  <scstep>
   <time name="dav">    4.38    4.38</time>
   <time name="total">   10.02   10.02</time>
   <energy>
    <i name="e_fr_energy">    -24.01148008 </i>
    <i name="e_wo_entrp">    -24.02721309 </i>
    <i name="e_0_energy">    -24.01672442 </i>
   </energy>
  </scstep>
  <scstep>
   <time name="dav">    4.41    4.41</time>
   <time name="total">   10.12   10.12</time>
   <energy>
    <i name="e_fr_energy">    -24.01107060 </i>
    <i name="e_wo_entrp">    -24.02677348 </i>
    <i name="e_0_energy">    -24.01630490 </i>
   </energy>
  </scstep>
  <scstep>
   <time name="dav">    3.22    3.22</time>
   <time name="total">    9.01    9.01</time>
   <energy>
    <i name="e_fr_energy">    -24.01205214 </i>
    <i name="e_wo_entrp">    -24.02776897 </i>
    <i name="e_0_energy">    -24.01729108 </i>
   </energy>
  </scstep>
  <scstep>
   <time name="dav">    4.37    4.37</time>
   <time name="total">   10.04   10.04</time>
   <energy>
    <i name="e_fr_energy">    -24.01778900 </i>
    <i name="e_wo_entrp">    -24.03350118 </i>
    <i name="e_0_energy">    -24.02302639 </i>
   </energy>
  </scstep>
  <scstep>
   <time name="dav">    3.24    3.24</time>
   <time name="total">    8.92    8.93</time>
   <energy>
    <i name="e_fr_energy">    -24.01825069 </i>
    <i name="e_wo_entrp">    -24.03394344 </i>
    <i name="e_0_energy">    -24.02348160 </i>
   </energy>
  </scstep>
  <scstep>
   <time name="dav">    3.79    3.79</time>
   <time name="total">    9.73    9.73</time>
   <energy>
    <i name="e_fr_energy">    -24.01864061 </i>
    <i name="e_wo_entrp">    -24.03435431 </i>
    <i name="e_0_energy">    -24.02387851 </i>
   </energy>
  </scstep>
  <scstep>
   <time name="dav">    4.93    4.93</time>
   <time name="total">   10.71   10.73</time>
   <energy>
    <i name="e_fr_energy">    -24.01845193 </i>
    <i name="e_wo_entrp">    -24.03416448 </i>
    <i name="e_0_energy">    -24.02368944 </i>
   </energy>
  </scstep>
  <scstep>
   <time name="dav">    4.37    4.37</time>
   <time name="total">   10.06   10.06</time>
   <energy>
    <i name="e_fr_energy">    -24.01989318 </i>
    <i name="e_wo_entrp">    -24.03561021 </i>
    <i name="e_0_energy">    -24.02513219 </i>
   </energy>
  </scstep>
  <scstep>
   <time name="dav">    4.37    4.38</time>
   <time name="total">   10.09   10.11</time>
   <energy>
    <i name="e_fr_energy">    -24.02068725 </i>
    <i name="e_wo_entrp">    -24.03639498 </i>
    <i name="e_0_energy">    -24.02592316 </i>
   </energy>
  </scstep>
  <scstep>
   <time name="dav">    5.50    5.51</time>
   <time name="total">   11.17   11.18</time>
   <energy>
    <i name="e_fr_energy">    -24.02103045 </i>
    <i name="e_wo_entrp">    -24.03673541 </i>
    <i name="e_0_energy">    -24.02626544 </i>
   </energy>
  </scstep>
  <scstep>
   <time name="dav">    3.22    3.22</time>
   <time name="total">    8.90    8.92</time>
   <energy>
    <i name="e_fr_energy">    -24.02149082 </i>
    <i name="e_wo_entrp">    -24.03720238 </i>
    <i name="e_0_energy">    -24.02672801 </i>
   </energy>
  </scstep>
  <scstep>
   <time name="dav">    5.53    5.53</time>
   <time name="total">   11.23   11.23</time>
   <energy>
    <i name="e_fr_energy">    -24.02149658 </i>
    <i name="e_wo_entrp">    -24.03719897 </i>
    <i name="e_0_energy">    -24.02673071 </i>
   </energy>
  </scstep>
  <scstep>
   <time name="dav">    5.50    5.50</time>
   <time name="total">   11.18   11.18</time>
   <energy>
    <i name="e_fr_energy">    -24.02165853 </i>
    <i name="e_wo_entrp">    -24.03739516 </i>
    <i name="e_0_energy">    -24.02690407 </i>
   </energy>
  </scstep>
  <scstep>
   <time name="dav">    4.37    4.37</time>
   <time name="total">   10.06   10.06</time>
   <energy>
    <i name="e_fr_energy">    -24.02208544 </i>
    <i name="e_wo_entrp">    -24.03779320 </i>
    <i name="e_0_energy">    -24.02732136 </i>
   </energy>
  </scstep>
  <scstep>
   <time name="dav">    3.79    3.79</time>
   <time name="total">    9.46    9.47</time>
   <energy>
    <i name="e_fr_energy">    -24.02286940 </i>
    <i name="e_wo_entrp">    -24.03858080 </i>
    <i name="e_0_energy">    -24.02810653 </i>
   </energy>
  </scstep>
  <scstep>
   <time name="dav">    3.23    3.23</time>
   <time name="total">    8.93    8.93</time>
   <energy>
    <i name="e_fr_energy">    -24.02289915 </i>
    <i name="e_wo_entrp">    -24.03861701 </i>
    <i name="e_0_energy">    -24.02813843 </i>
   </energy>
  </scstep>
  <scstep>
   <time name="dav">    5.52    5.52</time>
   <time name="total">   11.21   11.21</time>
   <energy>
    <i name="e_fr_energy">    -24.02298457 </i>
    <i name="e_wo_entrp">    -24.03869902 </i>
    <i name="e_0_energy">    -24.02822272 </i>
   </energy>
  </scstep>
  <scstep>
   <time name="dav">    3.22    3.22</time>
   <time name="total">    8.98    9.01</time>
   <energy>
    <i name="e_fr_energy">    -24.02367988 </i>
    <i name="e_wo_entrp">    -24.03939858 </i>
    <i name="e_0_energy">    -24.02891944 </i>
   </energy>
  </scstep>
  <scstep>
   <time name="dav">    4.37    4.37</time>
   <time name="total">   10.10   10.10</time>
   <energy>
    <i name="e_fr_energy">    -24.02414441 </i>
    <i name="e_wo_entrp">    -24.03985828 </i>
    <i name="e_0_energy">    -24.02938237 </i>
   </energy>
  </scstep>
  <scstep>
   <time name="dav">    3.23    3.23</time>
   <time name="total">    8.92    8.92</time>
   <energy>
    <i name="e_fr_energy">    -24.02445331 </i>
    <i name="e_wo_entrp">    -24.04016855 </i>
    <i name="e_0_energy">    -24.02969172 </i>
   </energy>
  </scstep>
  <scstep>
   <time name="dav">    4.94    4.94</time>
   <time name="total">   10.61   10.61</time>
   <energy>
    <i name="e_fr_energy">    -24.02443974 </i>
    <i name="e_wo_entrp">    -24.04015472 </i>
    <i name="e_0_energy">    -24.02967806 </i>
   </energy>
  </scstep>
  <scstep>
   <time name="dav">    3.22    3.22</time>
   <time name="total">    8.90    8.91</time>
   <energy>
    <i name="e_fr_energy">    -24.02465103 </i>
    <i name="e_wo_entrp">    -24.04036502 </i>
    <i name="e_0_energy">    -24.02988903 </i>
   </energy>
  </scstep>
  <scstep>
   <time name="dav">    3.22    3.22</time>
   <time name="total">    8.91    8.91</time>
   <energy>
    <i name="e_fr_energy">    -24.02486923 </i>
    <i name="e_wo_entrp">    -24.04058306 </i>
    <i name="e_0_energy">    -24.03010717 </i>
   </energy>
  </scstep>
  <scstep>
   <time name="dav">    3.22    3.22</time>
   <time name="total">    8.92    8.93</time>
   <energy>
    <i name="e_fr_energy">    -24.02491954 </i>
    <i name="e_wo_entrp">    -24.04063393 </i>
    <i name="e_0_energy">    -24.03015767 </i>
   </energy>
  </scstep>
  <scstep>
   <time name="dav">    5.52    5.52</time>
   <time name="total">   11.21   11.22</time>
   <energy>
    <i name="e_fr_energy">    -24.02495310 </i>
    <i name="e_wo_entrp">    -24.04066740 </i>
    <i name="e_0_energy">    -24.03019120 </i>
   </energy>
  </scstep>
  <scstep>
   <time name="dav">    3.79    3.79</time>
   <time name="total">    9.45    9.46</time>
   <energy>
    <i name="e_fr_energy">    -24.02496147 </i>
    <i name="e_wo_entrp">    -24.04067523 </i>
    <i name="e_0_energy">    -24.03019939 </i>
   </energy>
  </scstep>
  <scstep>
   <time name="dav">    5.51    5.51</time>
   <time name="total">   11.18   11.21</time>
   <energy>
    <i name="e_fr_energy">    -24.02496731 </i>
    <i name="e_wo_entrp">    -24.04068111 </i>
    <i name="e_0_energy">    -24.03020524 </i>
   </energy>
  </scstep>
  <scstep>
   <time name="dav">    4.37    4.37</time>
   <time name="total">   10.06   10.06</time>
   <energy>
    <i name="e_fr_energy">    -24.02496994 </i>
    <i name="e_wo_entrp">    -24.04068429 </i>
    <i name="e_0_energy">    -24.03020806 </i>
   </energy>
  </scstep>
  <scstep>
   <time name="dav">    3.22    3.22</time>
   <time name="total">    8.93    8.93</time>
   <energy>
    <i name="e_fr_energy">    -24.02497236 </i>
    <i name="e_wo_entrp">    -24.04068651 </i>
    <i name="e_0_energy">    -24.03021041 </i>
   </energy>
  </scstep>
  <scstep>
   <time name="dav">    4.37    4.37</time>
   <time name="total">   10.05   10.05</time>
   <energy>
    <i name="e_fr_energy">    -24.02498101 </i>
    <i name="e_wo_entrp">    -24.04069512 </i>
    <i name="e_0_energy">    -24.03021904 </i>
   </energy>
  </scstep>
  <scstep>
   <time name="dav">    4.94    4.94</time>
   <time name="total">    9.21    9.21</time>
   <energy>
    <i name="alphaZ">      0.00793180 </i>
    <i name="ewald">    216.72059744 </i>
    <i name="hartreedc">   -371.31361373 </i>
    <i name="XCdc">     24.75826255 </i>
    <i name="pawpsdc">    465.31229282 </i>
    <i name="pawaedc">   -466.10888672 </i>
    <i name="eentropy">      0.01571413 </i>
    <i name="bandstr">    -90.51142089 </i>
    <i name="atom">    197.09414118 </i>
    <i name="e_fr_energy">    -24.02498143 </i>
    <i name="e_wo_entrp">    -24.04069556 </i>
    <i name="e_0_energy">    -24.03021948 </i>
   </energy>
  </scstep>
  <structure>
   <crystal>
    <varray name="basis" >
     <v>      31.25823600       0.00000000       0.00000000 </v>
     <v>       0.00000000      31.25823600       0.00000000 </v>
     <v>       0.00000000       0.00000000      31.25823600 </v>
    </varray>
    <i name="volume">  30541.71339103 </i>
    <varray name="rec_basis" >
     <v>       0.03199157       0.00000000       0.00000000 </v>
     <v>       0.00000000       0.03199157       0.00000000 </v>
     <v>       0.00000000       0.00000000       0.03199157 </v>
    </varray>
   </crystal>
   <varray name="positions" >
    <v>       0.50000000       0.50000000       0.50000000 </v>
    <v>       0.52024201       0.52024201       0.52024201 </v>
    <v>       0.47975799       0.47975799       0.52024201 </v>
    <v>       0.52024201       0.47975799       0.47975799 </v>
    <v>       0.47975799       0.52024201       0.47975799 </v>
   </varray>
  </structure>
  <varray name="forces" >
   <v>      -0.00001176       0.00000947      -0.00001586 </v>
   <v>       0.00108847       0.00109670       0.00107807 </v>
   <v>      -0.00108404      -0.00109921       0.00107742 </v>
   <v>       0.00108809      -0.00109978      -0.00107162 </v>
   <v>      -0.00108076       0.00109281      -0.00106801 </v>
  </varray>
  <varray name="stress" >
   <v>      -0.00396777       0.00000043      -0.00000039 </v>
   <v>       0.00000043      -0.00396687       0.00000039 </v>
   <v>      -0.00000039       0.00000039      -0.00396784 </v>
  </varray>
  <energy>
   <i name="e_fr_energy">    -24.05720951 </i>
   <i name="e_wo_entrp">    -24.07292365 </i>
   <i name="e_0_energy">    -24.06244756 </i>
  </energy>
  <time name="totalsc">  583.51  583.93</time>
 </calculation>
 <calculation>
  <scstep>
   <time name="dav">    3.22    3.22</time>
   <time name="total">    8.88    8.89</time>
   <energy>
    <i name="alphaZ">      0.00793180 </i>
    <i name="ewald">    216.72059756 </i>
    <i name="hartreedc">   -371.30597529 </i>
    <i name="XCdc">     24.75796726 </i>
    <i name="pawpsdc">    465.31219807 </i>
    <i name="pawaedc">   -466.10879196 </i>
    <i name="eentropy">      0.00730419 </i>
    <i name="bandstr">    -90.51113137 </i>
    <i name="atom">    197.09414118 </i>
    <i name="e_fr_energy">    -24.02575855 </i>
    <i name="e_wo_entrp">    -24.03306274 </i>
    <i name="e_0_energy">    -24.02819328 </i>
   </energy>
  </scstep>
  <scstep>
   <time name="dav">    4.36    4.36</time>
   <time name="total">   10.04   10.05</time>
   <energy>
    <i name="e_fr_energy">    -23.94776233 </i>
    <i name="e_wo_entrp">    -23.95548889 </i>
    <i name="e_0_energy">    -23.95033785 </i>
   </energy>
  </scstep>
  <scstep>
   <time name="dav">    3.80    3.80</time>
   <time name="total">    9.50    9.50</time>
   <energy>
    <i name="e_fr_energy">    -23.97124425 </i>
    <i name="e_wo_entrp">    -23.97902986 </i>
    <i name="e_0_energy">    -23.97383945 </i>
   </energy>
  </scstep>
  <scstep>
   <time name="dav">    3.22    3.22</time>
   <time name="total">    8.92    8.92</time>
   <energy>
    <i name="e_fr_energy">    -23.97002401 </i>
    <i name="e_wo_entrp">    -23.97870896 </i>
    <i name="e_0_energy">    -23.97291900 </i>
   </energy>
  </scstep>
  <scstep>
   <time name="dav">    3.24    3.24</time>
   <time name="total">    8.91    8.92</time>
   <energy>
    <i name="e_fr_energy">    -23.96001006 </i>
    <i name="e_wo_entrp">    -23.96810490 </i>
    <i name="e_0_energy">    -23.96270834 </i>
   </energy>
  </scstep>
  <scstep>
   <time name="dav">    4.94    4.94</time>
   <time name="total">   10.61   10.62</time>
   <energy>
    <i name="e_fr_energy">    -23.95991469 </i>
    <i name="e_wo_entrp">    -23.96862401 </i>
    <i name="e_0_energy">    -23.96281779 </i>
   </energy>
  </scstep>
  <scstep>
   <time name="dav">    3.23    3.23</time>
   <time name="total">    8.91    8.91</time>
   <energy>
    <i name="e_fr_energy">    -23.97050992 </i>
    <i name="e_wo_entrp">    -23.97918500 </i>
    <i name="e_0_energy">    -23.97340161 </i>
   </energy>
  </scstep>
  <scstep>
   <time name="dav">    4.37    4.37</time>
   <time name="total">   10.11   10.11</time>
   <energy>
    <i name="e_fr_energy">    -23.98388897 </i>
    <i name="e_wo_entrp">    -23.99263371 </i>
    <i name="e_0_energy">    -23.98680388 </i>
   </energy>
  </scstep>
  <scstep>
   <time name="dav">    5.51    5.51</time>
   <time name="total">   11.21   11.21</time>
   <energy>
    <i name="e_fr_energy">    -23.98949651 </i>
    <i name="e_wo_entrp">    -23.99835672 </i>
    <i name="e_0_energy">    -23.99244991 </i>
   </energy>
  </scstep>
  <scstep>
   <time name="dav">    4.95    4.95</time>
   <time name="total">   10.63   10.64</time>
   <energy>
    <i name="e_fr_energy">    -24.00543051 </i>
    <i name="e_wo_entrp">    -24.01425523 </i>
    <i name="e_0_energy">    -24.00837208 </i>
   </energy>
  </scstep>
  <scstep>
   <time name="dav">    3.79    3.79</time>
   <time name="total">    9.48    9.48</time>
   <energy>
    <i name="e_fr_energy">    -24.01076498 </i>
    <i name="e_wo_entrp">    -24.01963398 </i>
    <i name="e_0_energy">    -24.01372131 </i>
   </energy>
  </scstep>
  <scstep>
   <time name="dav">    3.79    3.79</time>
   <time name="total">    9.49    9.49</time>
   <energy>
    <i name="e_fr_energy">    -24.01597952 </i>
    <i name="e_wo_entrp">    -24.02495573 </i>
    <i name="e_0_energy">    -24.01897159 </i>
   </energy>
  </scstep>
  <scstep>
   <time name="dav">    4.37    4.37</time>
   <time name="total">   10.05   10.06</time>
   <energy>
    <i name="e_fr_energy">    -24.01863044 </i>
    <i name="e_wo_entrp">    -24.02762104 </i>
    <i name="e_0_energy">    -24.02162731 </i>
   </energy>
  </scstep>
  <scstep>
   <time name="dav">    4.38    4.38</time>
   <time name="total">   10.06   10.08</time>
   <energy>
    <i name="e_fr_energy">    -24.01958315 </i>
    <i name="e_wo_entrp">    -24.02863457 </i>
    <i name="e_0_energy">    -24.02260029 </i>
   </energy>
  </scstep>
  <scstep>
   <time name="dav">    3.22    3.22</time>
   <time name="total">    8.91    8.91</time>
   <energy>
    <i name="e_fr_energy">    -24.02255657 </i>
    <i name="e_wo_entrp">    -24.03169599 </i>
    <i name="e_0_energy">    -24.02560304 </i>
   </energy>
  </scstep>
  <scstep>
   <time name="dav">    4.94    4.94</time>
   <time name="total">   10.61   10.62</time>
   <energy>
    <i name="e_fr_energy">    -24.02349566 </i>
    <i name="e_wo_entrp">    -24.03261649 </i>
    <i name="e_0_energy">    -24.02653593 </i>
   </energy>
  </scstep>
  <scstep>
   <time name="dav">    3.23    3.23</time>
   <time name="total">    8.93    8.94</time>
   <energy>
    <i name="e_fr_energy">    -24.02527077 </i>
    <i name="e_wo_entrp">    -24.03443942 </i>
    <i name="e_0_energy">    -24.02832699 </i>
   </energy>
  </scstep>
  <scstep>
   <time name="dav">    3.22    3.22</time>
   <time name="total">    8.92    8.92</time>
   <energy>
    <i name="e_fr_energy">    -24.02642136 </i>
    <i name="e_wo_entrp">    -24.03562416 </i>
    <i name="e_0_energy">    -24.02948896 </i>
   </energy>
  </scstep>
  <scstep>
   <time name="dav">    3.80    3.80</time>
   <time name="total">    9.55    9.55</time>
   <energy>
    <i name="e_fr_energy">    -24.02673465 </i>
    <i name="e_wo_entrp">    -24.03595856 </i>
    <i name="e_0_energy">    -24.02980929 </i>
   </energy>
  </scstep>
  <scstep>
   <time name="dav">    4.36    4.36</time>
   <time name="total">   10.05   10.05</time>
   <energy>
    <i name="e_fr_energy">    -24.02713328 </i>
    <i name="e_wo_entrp">    -24.03636418 </i>
    <i name="e_0_energy">    -24.03021024 </i>
   </energy>
  </scstep>
  <scstep>
   <time name="dav">    5.53    5.53</time>
   <time name="total">   11.23   11.23</time>
   <energy>
    <i name="e_fr_energy">    -24.02720535 </i>
    <i name="e_wo_entrp">    -24.03643927 </i>
    <i name="e_0_energy">    -24.03028332 </i>
   </energy>
  </scstep>
  <scstep>
   <time name="dav">    3.21    3.22</time>
   <time name="total">    8.90    8.90</time>
   <energy>
    <i name="e_fr_energy">    -24.02724185 </i>
    <i name="e_wo_entrp">    -24.03647506 </i>
    <i name="e_0_energy">    -24.03031959 </i>
   </energy>
  </scstep>
  <scstep>
   <time name="dav">    5.51    5.51</time>
   <time name="total">   11.20   11.20</time>
   <energy>
    <i name="e_fr_energy">    -24.02726760 </i>
    <i name="e_wo_entrp">    -24.03650130 </i>
    <i name="e_0_energy">    -24.03034550 </i>
   </energy>
  </scstep>
  <scstep>
   <time name="dav">    3.22    3.22</time>
   <time name="total">    8.92    8.93</time>
   <energy>
    <i name="e_fr_energy">    -24.02727960 </i>
    <i name="e_wo_entrp">    -24.03651308 </i>
    <i name="e_0_energy">    -24.03035742 </i>
   </energy>
  </scstep>
  <scstep>
   <time name="dav">    4.36    4.36</time>
   <time name="total">   10.02   10.03</time>
   <energy>
    <i name="e_fr_energy">    -24.02728869 </i>
    <i name="e_wo_entrp">    -24.03652226 </i>
    <i name="e_0_energy">    -24.03036655 </i>
   </energy>
  </scstep>
  <scstep>
   <time name="dav">    3.22    3.22</time>
   <time name="total">    8.90    8.90</time>
   <energy>
    <i name="e_fr_energy">    -24.02729360 </i>
    <i name="e_wo_entrp">    -24.03652676 </i>
    <i name="e_0_energy">    -24.03037132 </i>
   </energy>
  </scstep>
  <scstep>
   <time name="dav">    3.22    3.22</time>
   <time name="total">    8.91    8.92</time>
   <energy>
    <i name="e_fr_energy">    -24.02729761 </i>
    <i name="e_wo_entrp">    -24.03653088 </i>
    <i name="e_0_energy">    -24.03037537 </i>
   </energy>
  </scstep>
  <scstep>
   <time name="dav">    3.82    3.82</time>
   <time name="total">    9.51    9.51</time>
   <energy>
    <i name="e_fr_energy">    -24.02730065 </i>
    <i name="e_wo_entrp">    -24.03653365 </i>
    <i name="e_0_energy">    -24.03037832 </i>
   </energy>
  </scstep>
  <scstep>
   <time name="dav">    5.53    5.53</time>
   <time name="total">   11.24   11.24</time>
   <energy>
    <i name="e_fr_energy">    -24.02730213 </i>
    <i name="e_wo_entrp">    -24.03653516 </i>
    <i name="e_0_energy">    -24.03037981 </i>
   </energy>
  </scstep>
  <scstep>
   <time name="dav">    4.94    4.94</time>
   <time name="total">   10.61   10.61</time>
   <energy>
    <i name="e_fr_energy">    -24.02730339 </i>
    <i name="e_wo_entrp">    -24.03653656 </i>
    <i name="e_0_energy">    -24.03038111 </i>
   </energy>
  </scstep>
  <scstep>
   <time name="dav">    4.94    4.94</time>
   <time name="total">    9.19    9.20</time>
   <energy>
    <i name="alphaZ">      0.00793180 </i>
    <i name="ewald">    216.72059756 </i>
    <i name="hartreedc">   -371.30889636 </i>
    <i name="XCdc">     24.75775997 </i>
    <i name="pawpsdc">    465.16562967 </i>
    <i name="pawaedc">   -465.96233394 </i>
    <i name="eentropy">      0.00923319 </i>
    <i name="bandstr">    -90.51136685 </i>
    <i name="atom">    197.09414118 </i>
    <i name="e_fr_energy">    -24.02730377 </i>
    <i name="e_wo_entrp">    -24.03653696 </i>
    <i name="e_0_energy">    -24.03038150 </i>
   </energy>
  </scstep>
  <structure>
   <crystal>
    <varray name="basis" >
     <v>      31.25823600       0.00000000       0.00000000 </v>
     <v>       0.00000000      31.25823600       0.00000000 </v>
     <v>       0.00000000       0.00000000      31.25823600 </v>
    </varray>
    <i name="volume">  30541.71339103 </i>
    <varray name="rec_basis" >
     <v>       0.03199157       0.00000000       0.00000000 </v>
     <v>       0.00000000       0.03199157       0.00000000 </v>
     <v>       0.00000000       0.00000000       0.03199157 </v>
    </varray>
   </crystal>
   <varray name="positions" >
    <v>       0.50047987       0.50000000       0.50000000 </v>
    <v>       0.52024201       0.52024201       0.52024201 </v>
    <v>       0.47975799       0.47975799       0.52024201 </v>
    <v>       0.52024201       0.47975799       0.47975799 </v>
    <v>       0.47975799       0.52024201       0.47975799 </v>
   </varray>
  </structure>
  <varray name="forces" >
   <v>      -0.55315279      -0.00000461       0.00000395 </v>
   <v>       0.22211025       0.08554913       0.08554767 </v>
   <v>       0.05446694       0.15821073      -0.15821065 </v>
   <v>       0.22211013      -0.08554743      -0.08554890 </v>
   <v>       0.05446547      -0.15820783       0.15820794 </v>
  </varray>
  <varray name="stress" >
   <v>       0.00669021      -0.00000016       0.00000012 </v>
   <v>      -0.00000016      -0.00887785       0.01621706 </v>
   <v>       0.00000012       0.01621706      -0.00887784 </v>
  </varray>
  <energy>
   <i name="e_fr_energy">    -24.05953249 </i>
   <i name="e_wo_entrp">    -24.06876567 </i>
   <i name="e_0_energy">    -24.06261022 </i>
  </energy>
  <time name="totalsc">  316.27  316.44</time>
 </calculation>
 <calculation>
  <scstep>
   <time name="dav">    3.22    3.22</time>
   <time name="total">    8.85    8.86</time>
   <energy>
    <i name="alphaZ">      0.00793180 </i>
    <i name="ewald">    216.72059756 </i>
    <i name="hartreedc">   -371.29440951 </i>
    <i name="XCdc">     24.75727278 </i>
    <i name="pawpsdc">    465.16565481 </i>
    <i name="pawaedc">   -465.96235908 </i>
    <i name="eentropy">      0.00699744 </i>
    <i name="bandstr">    -90.52257871 </i>
    <i name="atom">    197.09414118 </i>
    <i name="e_fr_energy">    -24.02675173 </i>
    <i name="e_wo_entrp">    -24.03374917 </i>
    <i name="e_0_energy">    -24.02908421 </i>
   </energy>
  </scstep>
  <scstep>
   <time name="dav">    3.80    3.80</time>
   <time name="total">    9.50    9.51</time>
   <energy>
    <i name="e_fr_energy">    -23.81903987 </i>
    <i name="e_wo_entrp">    -23.82846616 </i>
    <i name="e_0_energy">    -23.82218197 </i>
   </energy>
  </scstep>
  <scstep>
   <time name="dav">    3.80    3.80</time>
   <time name="total">    9.49    9.49</time>
   <energy>
    <i name="e_fr_energy">    -23.77707638 </i>
    <i name="e_wo_entrp">    -23.78725635 </i>
    <i name="e_0_energy">    -23.78046971 </i>
   </energy>
  </scstep>
  <scstep>
   <time name="dav">    3.79    3.79</time>
   <time name="total">    9.50    9.51</time>
   <energy>
    <i name="e_fr_energy">    -23.79002543 </i>
    <i name="e_wo_entrp">    -23.79712911 </i>
    <i name="e_0_energy">    -23.79239332 </i>
   </energy>
  </scstep>
  <scstep>
   <time name="dav">    4.37    4.37</time>
   <time name="total">   10.06   10.06</time>
   <energy>
    <i name="e_fr_energy">    -23.79669887 </i>
    <i name="e_wo_entrp">    -23.80146095 </i>
    <i name="e_0_energy">    -23.79828623 </i>
   </energy>
  </scstep>
  <scstep>
   <time name="dav">    3.79    3.80</time>
   <time name="total">    9.46    9.47</time>
   <energy>
    <i name="e_fr_energy">    -23.84166477 </i>
    <i name="e_wo_entrp">    -23.84764177 </i>
    <i name="e_0_energy">    -23.84365710 </i>
   </energy>
  </scstep>
  <scstep>
   <time name="dav">    3.22    3.22</time>
   <time name="total">    8.96    8.96</time>
   <energy>
    <i name="e_fr_energy">    -23.91041234 </i>
    <i name="e_wo_entrp">    -23.91868187 </i>
    <i name="e_0_energy">    -23.91316885 </i>
   </energy>
  </scstep>
  <scstep>
   <time name="dav">    3.79    3.79</time>
   <time name="total">    9.50    9.50</time>
   <energy>
    <i name="e_fr_energy">    -23.98244237 </i>
    <i name="e_wo_entrp">    -23.99304001 </i>
    <i name="e_0_energy">    -23.98597492 </i>
   </energy>
  </scstep>
  <scstep>
   <time name="dav">    3.79    3.79</time>
   <time name="total">    9.50    9.50</time>
   <energy>
    <i name="e_fr_energy">    -23.98874163 </i>
    <i name="e_wo_entrp">    -23.99824883 </i>
    <i name="e_0_energy">    -23.99191070 </i>
   </energy>
  </scstep>
  <scstep>
   <time name="dav">    3.21    3.21</time>
   <time name="total">    8.90    8.90</time>
   <energy>
    <i name="e_fr_energy">    -23.99579246 </i>
    <i name="e_wo_entrp">    -24.00535126 </i>
    <i name="e_0_energy">    -23.99897873 </i>
   </energy>
  </scstep>
  <scstep>
   <time name="dav">    3.23    3.23</time>
   <time name="total">    8.99    8.99</time>
   <energy>
    <i name="e_fr_energy">    -23.99858981 </i>
    <i name="e_wo_entrp">    -24.00774039 </i>
    <i name="e_0_energy">    -24.00164000 </i>
   </energy>
  </scstep>
  <scstep>
   <time name="dav">    3.22    3.22</time>
   <time name="total">    8.91    8.92</time>
   <energy>
    <i name="e_fr_energy">    -24.00824741 </i>
    <i name="e_wo_entrp">    -24.01686597 </i>
    <i name="e_0_energy">    -24.01112026 </i>
   </energy>
  </scstep>
  <scstep>
   <time name="dav">    5.52    5.52</time>
   <time name="total">   11.23   11.23</time>
   <energy>
    <i name="e_fr_energy">    -24.01420762 </i>
    <i name="e_wo_entrp">    -24.02284079 </i>
    <i name="e_0_energy">    -24.01708535 </i>
   </energy>
  </scstep>
  <scstep>
   <time name="dav">    4.94    4.94</time>
   <time name="total">   10.66   10.66</time>
   <energy>
    <i name="e_fr_energy">    -24.02013934 </i>
    <i name="e_wo_entrp">    -24.02919403 </i>
    <i name="e_0_energy">    -24.02315757 </i>
   </energy>
  </scstep>
  <scstep>
   <time name="dav">    5.51    5.51</time>
   <time name="total">   11.19   11.19</time>
   <energy>
    <i name="e_fr_energy">    -24.02245450 </i>
    <i name="e_wo_entrp">    -24.03139975 </i>
    <i name="e_0_energy">    -24.02543625 </i>
   </energy>
  </scstep>
  <scstep>
   <time name="dav">    3.22    3.22</time>
   <time name="total">    8.93    8.93</time>
   <energy>
    <i name="e_fr_energy">    -24.02415577 </i>
    <i name="e_wo_entrp">    -24.03324213 </i>
    <i name="e_0_energy">    -24.02718456 </i>
   </energy>
  </scstep>
  <scstep>
   <time name="dav">    3.81    3.81</time>
   <time name="total">    9.52    9.52</time>
   <energy>
    <i name="e_fr_energy">    -24.02536645 </i>
    <i name="e_wo_entrp">    -24.03448173 </i>
    <i name="e_0_energy">    -24.02840488 </i>
   </energy>
  </scstep>
  <scstep>
   <time name="dav">    4.93    4.93</time>
   <time name="total">   10.63   10.65</time>
   <energy>
    <i name="e_fr_energy">    -24.02634464 </i>
    <i name="e_wo_entrp">    -24.03550694 </i>
    <i name="e_0_energy">    -24.02939874 </i>
   </energy>
  </scstep>
  <scstep>
   <time name="dav">    3.79    3.79</time>
   <time name="total">    9.49    9.50</time>
   <energy>
    <i name="e_fr_energy">    -24.02664509 </i>
    <i name="e_wo_entrp">    -24.03582014 </i>
    <i name="e_0_energy">    -24.02970344 </i>
   </energy>
  </scstep>
  <scstep>
   <time name="dav">    5.51    5.51</time>
   <time name="total">   11.20   11.20</time>
   <energy>
    <i name="e_fr_energy">    -24.02697826 </i>
    <i name="e_wo_entrp">    -24.03616198 </i>
    <i name="e_0_energy">    -24.03003950 </i>
   </energy>
  </scstep>
  <scstep>
   <time name="dav">    3.22    3.23</time>
   <time name="total">    8.93    8.94</time>
   <energy>
    <i name="e_fr_energy">    -24.02709505 </i>
    <i name="e_wo_entrp">    -24.03629054 </i>
    <i name="e_0_energy">    -24.03016021 </i>
   </energy>
  </scstep>
  <scstep>
   <time name="dav">    4.93    4.93</time>
   <time name="total">   10.61   10.62</time>
   <energy>
    <i name="e_fr_energy">    -24.02714038 </i>
    <i name="e_wo_entrp">    -24.03634001 </i>
    <i name="e_0_energy">    -24.03020692 </i>
   </energy>
  </scstep>
  <scstep>
   <time name="dav">    3.22    3.22</time>
   <time name="total">    8.87    8.90</time>
   <energy>
    <i name="e_fr_energy">    -24.02717816 </i>
    <i name="e_wo_entrp">    -24.03638432 </i>
    <i name="e_0_energy">    -24.03024688 </i>
   </energy>
  </scstep>
  <scstep>
   <time name="dav">    3.23    3.23</time>
   <time name="total">    9.04    9.04</time>
   <energy>
    <i name="e_fr_energy">    -24.02720372 </i>
    <i name="e_wo_entrp">    -24.03641404 </i>
    <i name="e_0_energy">    -24.03027383 </i>
   </energy>
  </scstep>
  <scstep>
   <time name="dav">    3.81    3.81</time>
   <time name="total">    9.49    9.49</time>
   <energy>
    <i name="e_fr_energy">    -24.02723995 </i>
    <i name="e_wo_entrp">    -24.03645628 </i>
    <i name="e_0_energy">    -24.03031206 </i>
   </energy>
  </scstep>
  <scstep>
   <time name="dav">    5.50    5.50</time>
   <time name="total">   11.19   11.19</time>
   <energy>
    <i name="e_fr_energy">    -24.02724245 </i>
    <i name="e_wo_entrp">    -24.03646706 </i>
    <i name="e_0_energy">    -24.03031732 </i>
   </energy>
  </scstep>
  <scstep>
   <time name="dav">    5.51    5.51</time>
   <time name="total">   11.20   11.20</time>
   <energy>
    <i name="e_fr_energy">    -24.02725246 </i>
    <i name="e_wo_entrp">    -24.03647908 </i>
    <i name="e_0_energy">    -24.03032800 </i>
   </energy>
  </scstep>
  <scstep>
   <time name="dav">    4.38    4.38</time>
   <time name="total">   10.07   10.07</time>
   <energy>
    <i name="e_fr_energy">    -24.02726457 </i>
    <i name="e_wo_entrp">    -24.03649192 </i>
    <i name="e_0_energy">    -24.03034035 </i>
   </energy>
  </scstep>
  <scstep>
   <time name="dav">    4.36    4.36</time>
   <time name="total">   10.07   10.07</time>
   <energy>
    <i name="e_fr_energy">    -24.02728429 </i>
    <i name="e_wo_entrp">    -24.03651326 </i>
    <i name="e_0_energy">    -24.03036062 </i>
   </energy>
  </scstep>
  <scstep>
   <time name="dav">    3.81    3.81</time>
   <time name="total">    9.47    9.47</time>
   <energy>
    <i name="e_fr_energy">    -24.02729136 </i>
    <i name="e_wo_entrp">    -24.03652212 </i>
    <i name="e_0_energy">    -24.03036828 </i>
   </energy>
  </scstep>
  <scstep>
   <time name="dav">    4.39    4.39</time>
   <time name="total">   10.07   10.08</time>
   <energy>
    <i name="e_fr_energy">    -24.02729644 </i>
    <i name="e_wo_entrp">    -24.03652855 </i>
    <i name="e_0_energy">    -24.03037381 </i>
   </energy>
  </scstep>
  <scstep>
   <time name="dav">    3.24    3.24</time>
   <time name="total">    8.92    8.93</time>
   <energy>
    <i name="e_fr_energy">    -24.02730069 </i>
    <i name="e_wo_entrp">    -24.03653394 </i>
    <i name="e_0_energy">    -24.03037844 </i>
   </energy>
  </scstep>
  <scstep>
   <time name="dav">    3.79    3.79</time>
   <time name="total">    9.46    9.46</time>
   <energy>
    <i name="e_fr_energy">    -24.02730192 </i>
    <i name="e_wo_entrp">    -24.03653523 </i>
    <i name="e_0_energy">    -24.03037969 </i>
   </energy>
  </scstep>
  <scstep>
   <time name="dav">    3.80    3.80</time>
   <time name="total">    8.04    8.04</time>
   <energy>
    <i name="alphaZ">      0.00793180 </i>
    <i name="ewald">    216.72059756 </i>
    <i name="hartreedc">   -371.30885368 </i>
    <i name="XCdc">     24.75775965 </i>
    <i name="pawpsdc">    465.16559657 </i>
    <i name="pawaedc">   -465.96230086 </i>
    <i name="eentropy">      0.00923342 </i>
    <i name="bandstr">    -90.51140834 </i>
    <i name="atom">    197.09414118 </i>
    <i name="e_fr_energy">    -24.02730270 </i>
    <i name="e_wo_entrp">    -24.03653612 </i>
    <i name="e_0_energy">    -24.03038050 </i>
   </energy>
  </scstep>
  <structure>
   <crystal>
    <varray name="basis" >
     <v>      31.25823600       0.00000000       0.00000000 </v>
     <v>       0.00000000      31.25823600       0.00000000 </v>
     <v>       0.00000000       0.00000000      31.25823600 </v>
    </varray>
    <i name="volume">  30541.71339103 </i>
    <varray name="rec_basis" >
     <v>       0.03199157       0.00000000       0.00000000 </v>
     <v>       0.00000000       0.03199157       0.00000000 </v>
     <v>       0.00000000       0.00000000       0.03199157 </v>
    </varray>
   </crystal>
   <varray name="positions" >
    <v>       0.49952013       0.50000000       0.50000000 </v>
    <v>       0.52024201       0.52024201       0.52024201 </v>
    <v>       0.47975799       0.47975799       0.52024201 </v>
    <v>       0.52024201       0.47975799       0.47975799 </v>
    <v>       0.47975799       0.52024201       0.47975799 </v>
   </varray>
  </structure>
  <varray name="forces" >
   <v>       0.55313463       0.00000057      -0.00000000 </v>
   <v>      -0.05445467      -0.15821249      -0.15821235 </v>
   <v>      -0.22211269      -0.08554447       0.08554429 </v>
   <v>      -0.05445470       0.15821230       0.15821236 </v>
   <v>      -0.22211257       0.08554408      -0.08554430 </v>
  </varray>
  <varray name="stress" >
   <v>       0.00669133      -0.00000004      -0.00000002 </v>
   <v>      -0.00000004      -0.00887817      -0.01621708 </v>
   <v>      -0.00000002      -0.01621708      -0.00887818 </v>
  </varray>
  <energy>
   <i name="e_fr_energy">    -24.05953141 </i>
   <i name="e_wo_entrp">    -24.06876483 </i>
   <i name="e_0_energy">    -24.06260922 </i>
  </energy>
  <time name="totalsc">  343.69  343.93</time>
 </calculation>
 <calculation>
  <scstep>
   <time name="dav">    3.23    3.23</time>
   <time name="total">    8.80    8.86</time>
   <energy>
    <i name="alphaZ">      0.00793180 </i>
    <i name="ewald">    216.72059756 </i>
    <i name="hartreedc">   -371.30157307 </i>
    <i name="XCdc">     24.75751503 </i>
    <i name="pawpsdc">    465.16566717 </i>
    <i name="pawaedc">   -465.96237148 </i>
    <i name="eentropy">      0.00807674 </i>
    <i name="bandstr">    -90.51589672 </i>
    <i name="atom">    197.09414118 </i>
    <i name="e_fr_energy">    -24.02591178 </i>
    <i name="e_wo_entrp">    -24.03398853 </i>
    <i name="e_0_energy">    -24.02860403 </i>
   </energy>
  </scstep>
  <scstep>
   <time name="dav">    4.94    4.94</time>
   <time name="total">   10.58   10.58</time>
   <energy>
    <i name="e_fr_energy">    -23.85599404 </i>
    <i name="e_wo_entrp">    -23.86585600 </i>
    <i name="e_0_energy">    -23.85928136 </i>
   </energy>
  </scstep>
  <scstep>
   <time name="dav">    4.37    4.37</time>
   <time name="total">   10.01   10.03</time>
   <energy>
    <i name="e_fr_energy">    -23.96151845 </i>
    <i name="e_wo_entrp">    -23.96734942 </i>
    <i name="e_0_energy">    -23.96346211 </i>
   </energy>
  </scstep>
  <scstep>
   <time name="dav">    5.50    5.50</time>
   <time name="total">   11.17   11.18</time>
   <energy>
    <i name="e_fr_energy">    -23.86233339 </i>
    <i name="e_wo_entrp">    -23.87224719 </i>
    <i name="e_0_energy">    -23.86563799 </i>
   </energy>
  </scstep>
  <scstep>
   <time name="dav">    4.36    4.36</time>
   <time name="total">   10.08   10.08</time>
   <energy>
    <i name="e_fr_energy">    -23.90015963 </i>
    <i name="e_wo_entrp">    -23.90616399 </i>
    <i name="e_0_energy">    -23.90216108 </i>
   </energy>
  </scstep>
  <scstep>
   <time name="dav">    3.81    3.81</time>
   <time name="total">    9.48    9.48</time>
   <energy>
    <i name="e_fr_energy">    -23.99733434 </i>
    <i name="e_wo_entrp">    -24.00561747 </i>
    <i name="e_0_energy">    -24.00009538 </i>
   </energy>
  </scstep>
  <scstep>
   <time name="dav">    4.93    4.93</time>
   <time name="total">   10.59   10.59</time>
   <energy>
    <i name="e_fr_energy">    -24.01287763 </i>
    <i name="e_wo_entrp">    -24.02100971 </i>
    <i name="e_0_energy">    -24.01558832 </i>
   </energy>
  </scstep>
  <scstep>
   <time name="dav">    5.52    5.52</time>
   <time name="total">   11.21   11.21</time>
   <energy>
    <i name="e_fr_energy">    -24.01713688 </i>
    <i name="e_wo_entrp">    -24.02598337 </i>
    <i name="e_0_energy">    -24.02008571 </i>
   </energy>
  </scstep>
  <scstep>
   <time name="dav">    4.37    4.37</time>
   <time name="total">   10.13   10.15</time>
   <energy>
    <i name="e_fr_energy">    -24.01891545 </i>
    <i name="e_wo_entrp">    -24.02758024 </i>
    <i name="e_0_energy">    -24.02180371 </i>
   </energy>
  </scstep>
  <scstep>
   <time name="dav">    4.03    4.03</time>
   <time name="total">    9.95    9.95</time>
   <energy>
    <i name="e_fr_energy">    -24.01846075 </i>
    <i name="e_wo_entrp">    -24.02727577 </i>
    <i name="e_0_energy">    -24.02139909 </i>
   </energy>
  </scstep>
  <scstep>
   <time name="dav">    3.22    3.22</time>
   <time name="total">    8.92    8.92</time>
   <energy>
    <i name="e_fr_energy">    -24.01894766 </i>
    <i name="e_wo_entrp">    -24.02800596 </i>
    <i name="e_0_energy">    -24.02196710 </i>
   </energy>
  </scstep>
  <scstep>
   <time name="dav">    4.37    4.37</time>
   <time name="total">   10.04   10.04</time>
   <energy>
    <i name="e_fr_energy">    -24.01892011 </i>
    <i name="e_wo_entrp">    -24.02800802 </i>
    <i name="e_0_energy">    -24.02194942 </i>
   </energy>
  </scstep>
  <scstep>
   <time name="dav">    3.78    3.78</time>
   <time name="total">    9.46    9.46</time>
   <energy>
    <i name="e_fr_energy">    -24.02019322 </i>
    <i name="e_wo_entrp">    -24.02929243 </i>
    <i name="e_0_energy">    -24.02322629 </i>
   </energy>
  </scstep>
  <scstep>
   <time name="dav">    4.36    4.36</time>
   <time name="total">   10.04   10.04</time>
   <energy>
    <i name="e_fr_energy">    -24.02126543 </i>
    <i name="e_wo_entrp">    -24.03041830 </i>
    <i name="e_0_energy">    -24.02431639 </i>
   </energy>
  </scstep>
  <scstep>
   <time name="dav">    3.22    3.22</time>
   <time name="total">    8.91    8.91</time>
   <energy>
    <i name="e_fr_energy">    -24.02279447 </i>
    <i name="e_wo_entrp">    -24.03198711 </i>
    <i name="e_0_energy">    -24.02585868 </i>
   </energy>
  </scstep>
  <scstep>
   <time name="dav">    4.36    4.36</time>
   <time name="total">   10.05   10.06</time>
   <energy>
    <i name="e_fr_energy">    -24.02459555 </i>
    <i name="e_wo_entrp">    -24.03382488 </i>
    <i name="e_0_energy">    -24.02767199 </i>
   </energy>
  </scstep>
  <scstep>
   <time name="dav">    3.23    3.23</time>
   <time name="total">    8.88    8.89</time>
   <energy>
    <i name="e_fr_energy">    -24.02573323 </i>
    <i name="e_wo_entrp">    -24.03497986 </i>
    <i name="e_0_energy">    -24.02881544 </i>
   </energy>
  </scstep>
  <scstep>
   <time name="dav">    3.22    3.22</time>
   <time name="total">    8.88    8.88</time>
   <energy>
    <i name="e_fr_energy">    -24.02644654 </i>
    <i name="e_wo_entrp">    -24.03569901 </i>
    <i name="e_0_energy">    -24.02953069 </i>
   </energy>
  </scstep>
  <scstep>
   <time name="dav">    3.79    3.79</time>
   <time name="total">    9.46    9.46</time>
   <energy>
    <i name="e_fr_energy">    -24.02680335 </i>
    <i name="e_wo_entrp">    -24.03605439 </i>
    <i name="e_0_energy">    -24.02988703 </i>
   </energy>
  </scstep>
  <scstep>
   <time name="dav">    5.51    5.51</time>
   <time name="total">   11.19   11.19</time>
   <energy>
    <i name="e_fr_energy">    -24.02698624 </i>
    <i name="e_wo_entrp">    -24.03623323 </i>
    <i name="e_0_energy">    -24.03006857 </i>
   </energy>
  </scstep>
  <scstep>
   <time name="dav">    4.36    4.36</time>
   <time name="total">   10.03   10.03</time>
   <energy>
    <i name="e_fr_energy">    -24.02713413 </i>
    <i name="e_wo_entrp">    -24.03637544 </i>
    <i name="e_0_energy">    -24.03021457 </i>
   </energy>
  </scstep>
  <scstep>
   <time name="dav">    5.50    5.50</time>
   <time name="total">   11.17   11.20</time>
   <energy>
    <i name="e_fr_energy">    -24.02721262 </i>
    <i name="e_wo_entrp">    -24.03645213 </i>
    <i name="e_0_energy">    -24.03029245 </i>
   </energy>
  </scstep>
  <scstep>
   <time name="dav">    4.37    4.37</time>
   <time name="total">   10.06   10.09</time>
   <energy>
    <i name="e_fr_energy">    -24.02722848 </i>
    <i name="e_wo_entrp">    -24.03646790 </i>
    <i name="e_0_energy">    -24.03030829 </i>
   </energy>
  </scstep>
  <scstep>
   <time name="dav">    4.94    4.94</time>
   <time name="total">   10.60   10.61</time>
   <energy>
    <i name="e_fr_energy">    -24.02726139 </i>
    <i name="e_wo_entrp">    -24.03649839 </i>
    <i name="e_0_energy">    -24.03034039 </i>
   </energy>
  </scstep>
  <scstep>
   <time name="dav">    4.38    4.38</time>
   <time name="total">   10.05   10.05</time>
   <energy>
    <i name="e_fr_energy">    -24.02727618 </i>
    <i name="e_wo_entrp">    -24.03651183 </i>
    <i name="e_0_energy">    -24.03035473 </i>
   </energy>
  </scstep>
  <scstep>
   <time name="dav">    4.36    4.36</time>
   <time name="total">   10.07   10.07</time>
   <energy>
    <i name="e_fr_energy">    -24.02728588 </i>
    <i name="e_wo_entrp">    -24.03652087 </i>
    <i name="e_0_energy">    -24.03036421 </i>
   </energy>
  </scstep>
  <scstep>
   <time name="dav">    5.51    5.51</time>
   <time name="total">   11.27   11.27</time>
   <energy>
    <i name="e_fr_energy">    -24.02729675 </i>
    <i name="e_wo_entrp">    -24.03653091 </i>
    <i name="e_0_energy">    -24.03037480 </i>
   </energy>
  </scstep>
  <scstep>
   <time name="dav">    5.52    5.52</time>
   <time name="total">   11.21   11.21</time>
   <energy>
    <i name="e_fr_energy">    -24.02730019 </i>
    <i name="e_wo_entrp">    -24.03653387 </i>
    <i name="e_0_energy">    -24.03037808 </i>
   </energy>
  </scstep>
  <scstep>
   <time name="dav">    5.53    5.53</time>
   <time name="total">   11.21   11.22</time>
   <energy>
    <i name="e_fr_energy">    -24.02730133 </i>
    <i name="e_wo_entrp">    -24.03653485 </i>
    <i name="e_0_energy">    -24.03037917 </i>
   </energy>
  </scstep>
  <scstep>
   <time name="dav">    5.51    5.51</time>
   <time name="total">   11.21   11.21</time>
   <energy>
    <i name="e_fr_energy">    -24.02730283 </i>
    <i name="e_wo_entrp">    -24.03653621 </i>
    <i name="e_0_energy">    -24.03038062 </i>
   </energy>
  </scstep>
  <scstep>
   <time name="dav">    5.51    5.51</time>
   <time name="total">    9.78    9.78</time>
   <energy>
    <i name="alphaZ">      0.00793180 </i>
    <i name="ewald">    216.72059756 </i>
    <i name="hartreedc">   -371.30889839 </i>
    <i name="XCdc">     24.75776048 </i>
    <i name="pawpsdc">    465.16564744 </i>
    <i name="pawaedc">   -465.96235169 </i>
    <i name="eentropy">      0.00923332 </i>
    <i name="bandstr">    -90.51136503 </i>
    <i name="atom">    197.09414118 </i>
    <i name="e_fr_energy">    -24.02730332 </i>
    <i name="e_wo_entrp">    -24.03653665 </i>
    <i name="e_0_energy">    -24.03038110 </i>
   </energy>
  </scstep>
  <structure>
   <crystal>
    <varray name="basis" >
     <v>      31.25823600       0.00000000       0.00000000 </v>
     <v>       0.00000000      31.25823600       0.00000000 </v>
     <v>       0.00000000       0.00000000      31.25823600 </v>
    </varray>
    <i name="volume">  30541.71339103 </i>
    <varray name="rec_basis" >
     <v>       0.03199157       0.00000000       0.00000000 </v>
     <v>       0.00000000       0.03199157       0.00000000 </v>
     <v>       0.00000000       0.00000000       0.03199157 </v>
    </varray>
   </crystal>
   <varray name="positions" >
    <v>       0.50000000       0.50047987       0.50000000 </v>
    <v>       0.52024201       0.52024201       0.52024201 </v>
    <v>       0.47975799       0.47975799       0.52024201 </v>
    <v>       0.52024201       0.47975799       0.47975799 </v>
    <v>       0.47975799       0.52024201       0.47975799 </v>
   </varray>
  </structure>
  <varray name="forces" >
   <v>       0.00000802      -0.55313951      -0.00000377 </v>
   <v>       0.08554425       0.22211142       0.08554593 </v>
   <v>       0.15820892       0.05445684      -0.15820984 </v>
   <v>      -0.15821398       0.05445951       0.15821315 </v>
   <v>      -0.08554722       0.22211174      -0.08554547 </v>
  </varray>
  <varray name="stress" >
   <v>      -0.00887823       0.00000028       0.01621717 </v>
   <v>       0.00000028       0.00669101      -0.00000018 </v>
   <v>       0.01621717      -0.00000018      -0.00887821 </v>
  </varray>
  <energy>
   <i name="e_fr_energy">    -24.05953204 </i>
   <i name="e_wo_entrp">    -24.06876536 </i>
   <i name="e_0_energy">    -24.06260981 </i>
  </energy>
  <time name="totalsc">  328.29  328.65</time>
 </calculation>
 <calculation>
  <scstep>
   <time name="dav">    3.22    3.22</time>
   <time name="total">    8.84    8.85</time>
   <energy>
    <i name="alphaZ">      0.00793180 </i>
    <i name="ewald">    216.72059756 </i>
    <i name="hartreedc">   -371.29441096 </i>
    <i name="XCdc">     24.75727294 </i>
    <i name="pawpsdc">    465.16562785 </i>
    <i name="pawaedc">   -465.96233210 </i>
    <i name="eentropy">      0.00699750 </i>
    <i name="bandstr">    -90.52255260 </i>
    <i name="atom">    197.09414118 </i>
    <i name="e_fr_energy">    -24.02672684 </i>
    <i name="e_wo_entrp">    -24.03372434 </i>
    <i name="e_0_energy">    -24.02905934 </i>
   </energy>
  </scstep>
  <scstep>
   <time name="dav">    3.79    3.79</time>
   <time name="total">    9.49    9.49</time>
   <energy>
    <i name="e_fr_energy">    -23.85918872 </i>
    <i name="e_wo_entrp">    -23.86845745 </i>
    <i name="e_0_energy">    -23.86227830 </i>
   </energy>
  </scstep>
  <scstep>
   <time name="dav">    4.37    4.37</time>
   <time name="total">   10.06   10.07</time>
   <energy>
    <i name="e_fr_energy">    -23.92202015 </i>
    <i name="e_wo_entrp">    -23.93083547 </i>
    <i name="e_0_energy">    -23.92495859 </i>
   </energy>
  </scstep>
  <scstep>
   <time name="dav">    5.52    5.53</time>
   <time name="total">   11.21   11.22</time>
   <energy>
    <i name="e_fr_energy">    -23.90984152 </i>
    <i name="e_wo_entrp">    -23.91317759 </i>
    <i name="e_0_energy">    -23.91095355 </i>
   </energy>
  </scstep>
  <scstep>
   <time name="dav">    3.80    3.80</time>
   <time name="total">    9.49    9.49</time>
   <energy>
    <i name="e_fr_energy">    -23.94173107 </i>
    <i name="e_wo_entrp">    -23.94570508 </i>
    <i name="e_0_energy">    -23.94305574 </i>
   </energy>
  </scstep>
  <scstep>
   <time name="dav">    4.37    4.37</time>
   <time name="total">   10.07   10.09</time>
   <energy>
    <i name="e_fr_energy">    -23.96745022 </i>
    <i name="e_wo_entrp">    -23.97452366 </i>
    <i name="e_0_energy">    -23.96980803 </i>
   </energy>
  </scstep>
  <scstep>
   <time name="dav">    5.51    5.51</time>
   <time name="total">   11.19   11.19</time>
   <energy>
    <i name="e_fr_energy">    -23.97754875 </i>
    <i name="e_wo_entrp">    -23.98513771 </i>
    <i name="e_0_energy">    -23.98007840 </i>
   </energy>
  </scstep>
  <scstep>
   <time name="dav">    3.79    3.79</time>
   <time name="total">    9.49    9.49</time>
   <energy>
    <i name="e_fr_energy">    -23.99399409 </i>
    <i name="e_wo_entrp">    -24.00176552 </i>
    <i name="e_0_energy">    -23.99658456 </i>
   </energy>
  </scstep>
  <scstep>
   <time name="dav">    3.79    3.79</time>
   <time name="total">    9.50    9.51</time>
   <energy>
    <i name="e_fr_energy">    -24.00617819 </i>
    <i name="e_wo_entrp">    -24.01438006 </i>
    <i name="e_0_energy">    -24.00891215 </i>
   </energy>
  </scstep>
  <scstep>
   <time name="dav">    4.37    4.37</time>
   <time name="total">   10.07   10.07</time>
   <energy>
    <i name="e_fr_energy">    -24.01515722 </i>
    <i name="e_wo_entrp">    -24.02384456 </i>
    <i name="e_0_energy">    -24.01805300 </i>
   </energy>
  </scstep>
  <scstep>
   <time name="dav">    4.94    4.94</time>
   <time name="total">   10.66   10.66</time>
   <energy>
    <i name="e_fr_energy">    -24.01809088 </i>
    <i name="e_wo_entrp">    -24.02651925 </i>
    <i name="e_0_energy">    -24.02090034 </i>
   </energy>
  </scstep>
  <scstep>
   <time name="dav">    4.37    4.37</time>
   <time name="total">   10.08   10.08</time>
   <energy>
    <i name="e_fr_energy">    -24.02194127 </i>
    <i name="e_wo_entrp">    -24.03088380 </i>
    <i name="e_0_energy">    -24.02492212 </i>
   </energy>
  </scstep>
  <scstep>
   <time name="dav">    3.79    3.79</time>
   <time name="total">    9.44    9.45</time>
   <energy>
    <i name="e_fr_energy">    -24.02458110 </i>
    <i name="e_wo_entrp">    -24.03371537 </i>
    <i name="e_0_energy">    -24.02762585 </i>
   </energy>
  </scstep>
  <scstep>
   <time name="dav">    4.94    4.94</time>
   <time name="total">   10.63   10.63</time>
   <energy>
    <i name="e_fr_energy">    -24.02522824 </i>
    <i name="e_wo_entrp">    -24.03427258 </i>
    <i name="e_0_energy">    -24.02824302 </i>
   </energy>
  </scstep>
  <scstep>
   <time name="dav">    3.79    3.79</time>
   <time name="total">    9.49    9.51</time>
   <energy>
    <i name="e_fr_energy">    -24.02557071 </i>
    <i name="e_wo_entrp">    -24.03474390 </i>
    <i name="e_0_energy">    -24.02862844 </i>
   </energy>
  </scstep>
  <scstep>
   <time name="dav">    5.51    5.51</time>
   <time name="total">   11.20   11.21</time>
   <energy>
    <i name="e_fr_energy">    -24.02548526 </i>
    <i name="e_wo_entrp">    -24.03463023 </i>
    <i name="e_0_energy">    -24.02853358 </i>
   </energy>
  </scstep>
  <scstep>
   <time name="dav">    3.80    3.80</time>
   <time name="total">    9.57    9.57</time>
   <energy>
    <i name="e_fr_energy">    -24.02562117 </i>
    <i name="e_wo_entrp">    -24.03481883 </i>
    <i name="e_0_energy">    -24.02868706 </i>
   </energy>
  </scstep>
  <scstep>
   <time name="dav">    3.79    3.79</time>
   <time name="total">    9.47    9.47</time>
   <energy>
    <i name="e_fr_energy">    -24.02584479 </i>
    <i name="e_wo_entrp">    -24.03502245 </i>
    <i name="e_0_energy">    -24.02890401 </i>
   </energy>
  </scstep>
  <scstep>
   <time name="dav">    3.22    3.22</time>
   <time name="total">    8.90    8.90</time>
   <energy>
    <i name="e_fr_energy">    -24.02618107 </i>
    <i name="e_wo_entrp">    -24.03538162 </i>
    <i name="e_0_energy">    -24.02924792 </i>
   </energy>
  </scstep>
  <scstep>
   <time name="dav">    4.37    4.37</time>
   <time name="total">   10.07   10.07</time>
   <energy>
    <i name="e_fr_energy">    -24.02680217 </i>
    <i name="e_wo_entrp">    -24.03602238 </i>
    <i name="e_0_energy">    -24.02987557 </i>
   </energy>
  </scstep>
  <scstep>
   <time name="dav">    3.22    3.22</time>
   <time name="total">    8.92    8.92</time>
   <energy>
    <i name="e_fr_energy">    -24.02702340 </i>
    <i name="e_wo_entrp">    -24.03625272 </i>
    <i name="e_0_energy">    -24.03009984 </i>
   </energy>
  </scstep>
  <scstep>
   <time name="dav">    4.36    4.36</time>
   <time name="total">   10.08   10.09</time>
   <energy>
    <i name="e_fr_energy">    -24.02714002 </i>
    <i name="e_wo_entrp">    -24.03636779 </i>
    <i name="e_0_energy">    -24.03021594 </i>
   </energy>
  </scstep>
  <scstep>
   <time name="dav">    4.95    4.95</time>
   <time name="total">   10.62   10.63</time>
   <energy>
    <i name="e_fr_energy">    -24.02720476 </i>
    <i name="e_wo_entrp">    -24.03643380 </i>
    <i name="e_0_energy">    -24.03028111 </i>
   </energy>
  </scstep>
  <scstep>
   <time name="dav">    4.36    4.36</time>
   <time name="total">   10.04   10.04</time>
   <energy>
    <i name="e_fr_energy">    -24.02724032 </i>
    <i name="e_wo_entrp">    -24.03647076 </i>
    <i name="e_0_energy">    -24.03031714 </i>
   </energy>
  </scstep>
  <scstep>
   <time name="dav">    4.37    4.37</time>
   <time name="total">   10.05   10.06</time>
   <energy>
    <i name="e_fr_energy">    -24.02726949 </i>
    <i name="e_wo_entrp">    -24.03650205 </i>
    <i name="e_0_energy">    -24.03034701 </i>
   </energy>
  </scstep>
  <scstep>
   <time name="dav">    4.37    4.37</time>
   <time name="total">   10.06   10.06</time>
   <energy>
    <i name="e_fr_energy">    -24.02728809 </i>
[...]
       <r>    -4.1765     0.0000     4.0000 </r>
       <r>    -4.1123     0.0000     4.0000 </r>
       <r>    -4.0481     0.0000     4.0000 </r>
       <r>    -3.9839     0.0000     4.0000 </r>
       <r>    -3.9198     0.0000     4.0000 </r>
       <r>    -3.8556     0.0000     4.0000 </r>
       <r>    -3.7914     0.0000     4.0000 </r>
       <r>    -3.7272     0.0000     4.0000 </r>
       <r>    -3.6631     0.0000     4.0000 </r>
       <r>    -3.5989     0.0000     4.0000 </r>
       <r>    -3.5347     0.0000     4.0000 </r>
       <r>    -3.4705     0.0000     4.0000 </r>
       <r>    -3.4064     0.0000     4.0000 </r>
       <r>    -3.3422     0.0000     4.0000 </r>
       <r>    -3.2780     0.0000     4.0000 </r>
       <r>    -3.2138     0.0000     4.0000 </r>
       <r>    -3.1497     0.0000     4.0000 </r>
       <r>    -3.0855     0.0000     4.0000 </r>
       <r>    -3.0213     0.0000     4.0000 </r>
       <r>    -2.9571     0.0000     4.0000 </r>
       <r>    -2.8930     0.0000     4.0000 </r>
       <r>    -2.8288     0.0000     4.0000 </r>
       <r>    -2.7646     0.0000     4.0000 </r>
       <r>    -2.7005     0.0000     4.0000 </r>
       <r>    -2.6363     0.0000     4.0000 </r>
       <r>    -2.5721     0.0000     4.0000 </r>
       <r>    -2.5079     0.0000     4.0000 </r>
       <r>    -2.4438     0.0000     4.0000 </r>
       <r>    -2.3796     0.0000     4.0000 </r>
       <r>    -2.3154     0.0000     4.0000 </r>
       <r>    -2.2512     0.0000     4.0000 </r>
       <r>    -2.1871     0.0000     4.0000 </r>
       <r>    -2.1229     0.0000     4.0000 </r>
       <r>    -2.0587     0.0000     4.0000 </r>
       <r>    -1.9945     0.0000     4.0000 </r>
       <r>    -1.9304     0.0000     4.0000 </r>
       <r>    -1.8662     0.0000     4.0000 </r>
       <r>    -1.8020     0.0000     4.0000 </r>
       <r>    -1.7378     0.0000     4.0000 </r>
       <r>    -1.6737     0.0000     4.0000 </r>
       <r>    -1.6095     0.0000     4.0000 </r>
       <r>    -1.5453     0.0000     4.0000 </r>
       <r>    -1.4811     0.0000     4.0000 </r>
       <r>    -1.4170     0.0000     4.0000 </r>
       <r>    -1.3528     0.0000     4.0000 </r>
       <r>    -1.2886     0.0000     4.0000 </r>
       <r>    -1.2244    -0.0000     4.0000 </r>
       <r>    -1.1603    -0.0000     4.0000 </r>
       <r>    -1.0961    -0.0000     4.0000 </r>
       <r>    -1.0319    -0.0000     4.0000 </r>
       <r>    -0.9677    -0.0000     4.0000 </r>
       <r>    -0.9036    -0.0000     4.0000 </r>
       <r>    -0.8394    -0.0000     4.0000 </r>
       <r>    -0.7752    -0.0000     4.0000 </r>
       <r>    -0.7111    -0.0017     3.9999 </r>
       <r>    -0.6469    -0.0361     3.9976 </r>
       <r>    -0.5827    -0.2617     3.9808 </r>
       <r>    -0.5185    -0.1527     3.9710 </r>
       <r>    -0.4544     3.3961     4.1889 </r>
       <r>    -0.3902     7.9208     4.6972 </r>
       <r>    -0.3260     4.8458     5.0082 </r>
       <r>    -0.2618     0.2765     5.0259 </r>
       <r>    -0.1977    -0.4625     4.9963 </r>
       <r>    -0.1335    -0.4971     4.9644 </r>
       <r>    -0.0693     0.5783     5.0015 </r>
       <r>    -0.0051     4.2995     5.2774 </r>
       <r>     0.0590    10.9566     5.9805 </r>
       <r>     0.1232    32.5639     8.0703 </r>
       <r>     0.1874    43.6947    10.8744 </r>
       <r>     0.2516    19.0282    12.0955 </r>
       <r>     0.3157     0.1943    12.1079 </r>
       <r>     0.3799    -1.3895    12.0188 </r>
       <r>     0.4441    -0.2724    12.0013 </r>
       <r>     0.5083    -0.0195    12.0000 </r>
       <r>     0.5724    -0.0006    12.0000 </r>
       <r>     0.6366    -0.0000    12.0000 </r>
       <r>     0.7008    -0.0000    12.0000 </r>
       <r>     0.7650    -0.0000    12.0000 </r>
       <r>     0.8291    -0.0000    12.0000 </r>
       <r>     0.8933     0.0000    12.0000 </r>
       <r>     0.9575     0.0000    12.0000 </r>
       <r>     1.0217     0.0000    12.0000 </r>
       <r>     1.0858     0.0000    12.0000 </r>
       <r>     1.1500     0.0000    12.0000 </r>
       <r>     1.2142     0.0000    12.0000 </r>
      </set>
      <set comment="spin 2">
       <r>   -18.0381     0.0000     0.0000 </r>
       <r>   -17.9739     0.0000     0.0000 </r>
       <r>   -17.9097     0.0000     0.0000 </r>
       <r>   -17.8456    -0.0000    -0.0000 </r>
       <r>   -17.7814    -0.0000    -0.0000 </r>
       <r>   -17.7172    -0.0000    -0.0000 </r>
       <r>   -17.6530    -0.0000    -0.0000 </r>
       <r>   -17.5889    -0.0000    -0.0000 </r>
       <r>   -17.5247    -0.0000    -0.0000 </r>
       <r>   -17.4605    -0.0000    -0.0000 </r>
       <r>   -17.3963    -0.0000    -0.0000 </r>
       <r>   -17.3322    -0.0020    -0.0001 </r>
       <r>   -17.2680    -0.0402    -0.0027 </r>
       <r>   -17.2038    -0.2763    -0.0204 </r>
       <r>   -17.1397    -0.0971    -0.0267 </r>
       <r>   -17.0755     3.6379     0.2068 </r>
       <r>   -17.0113     7.9649     0.7179 </r>
       <r>   -16.9471     4.5984     1.0130 </r>
       <r>   -16.8830     0.1915     1.0253 </r>
       <r>   -16.8188    -0.3309     1.0041 </r>
       <r>   -16.7546    -0.0600     1.0002 </r>
       <r>   -16.6904    -0.0035     1.0000 </r>
       <r>   -16.6263    -0.0001     1.0000 </r>
       <r>   -16.5621    -0.0000     1.0000 </r>
       <r>   -16.4979    -0.0000     1.0000 </r>
       <r>   -16.4337    -0.0000     1.0000 </r>
       <r>   -16.3696    -0.0000     1.0000 </r>
       <r>   -16.3054     0.0000     1.0000 </r>
       <r>   -16.2412     0.0000     1.0000 </r>
       <r>   -16.1770     0.0000     1.0000 </r>
       <r>   -16.1129     0.0000     1.0000 </r>
       <r>   -16.0487     0.0000     1.0000 </r>
       <r>   -15.9845     0.0000     1.0000 </r>
       <r>   -15.9203     0.0000     1.0000 </r>
       <r>   -15.8562     0.0000     1.0000 </r>
       <r>   -15.7920     0.0000     1.0000 </r>
       <r>   -15.7278     0.0000     1.0000 </r>
       <r>   -15.6636     0.0000     1.0000 </r>
       <r>   -15.5995     0.0000     1.0000 </r>
       <r>   -15.5353     0.0000     1.0000 </r>
       <r>   -15.4711     0.0000     1.0000 </r>
       <r>   -15.4069     0.0000     1.0000 </r>
       <r>   -15.3428     0.0000     1.0000 </r>
       <r>   -15.2786     0.0000     1.0000 </r>
       <r>   -15.2144     0.0000     1.0000 </r>
       <r>   -15.1502     0.0000     1.0000 </r>
       <r>   -15.0861     0.0000     1.0000 </r>
       <r>   -15.0219     0.0000     1.0000 </r>
       <r>   -14.9577     0.0000     1.0000 </r>
       <r>   -14.8936     0.0000     1.0000 </r>
       <r>   -14.8294     0.0000     1.0000 </r>
       <r>   -14.7652     0.0000     1.0000 </r>
       <r>   -14.7010     0.0000     1.0000 </r>
       <r>   -14.6369     0.0000     1.0000 </r>
       <r>   -14.5727     0.0000     1.0000 </r>
       <r>   -14.5085     0.0000     1.0000 </r>
       <r>   -14.4443     0.0000     1.0000 </r>
       <r>   -14.3802     0.0000     1.0000 </r>
       <r>   -14.3160     0.0000     1.0000 </r>
       <r>   -14.2518     0.0000     1.0000 </r>
       <r>   -14.1876     0.0000     1.0000 </r>
       <r>   -14.1235     0.0000     1.0000 </r>
       <r>   -14.0593     0.0000     1.0000 </r>
       <r>   -13.9951     0.0000     1.0000 </r>
       <r>   -13.9309     0.0000     1.0000 </r>
       <r>   -13.8668     0.0000     1.0000 </r>
       <r>   -13.8026     0.0000     1.0000 </r>
       <r>   -13.7384     0.0000     1.0000 </r>
       <r>   -13.6742     0.0000     1.0000 </r>
       <r>   -13.6101     0.0000     1.0000 </r>
       <r>   -13.5459     0.0000     1.0000 </r>
       <r>   -13.4817     0.0000     1.0000 </r>
       <r>   -13.4175     0.0000     1.0000 </r>
       <r>   -13.3534     0.0000     1.0000 </r>
       <r>   -13.2892     0.0000     1.0000 </r>
       <r>   -13.2250     0.0000     1.0000 </r>
       <r>   -13.1608     0.0000     1.0000 </r>
       <r>   -13.0967     0.0000     1.0000 </r>
       <r>   -13.0325     0.0000     1.0000 </r>
       <r>   -12.9683     0.0000     1.0000 </r>
       <r>   -12.9042     0.0000     1.0000 </r>
       <r>   -12.8400     0.0000     1.0000 </r>
       <r>   -12.7758     0.0000     1.0000 </r>
       <r>   -12.7116     0.0000     1.0000 </r>
       <r>   -12.6475     0.0000     1.0000 </r>
       <r>   -12.5833     0.0000     1.0000 </r>
       <r>   -12.5191     0.0000     1.0000 </r>
       <r>   -12.4549     0.0000     1.0000 </r>
       <r>   -12.3908     0.0000     1.0000 </r>
       <r>   -12.3266     0.0000     1.0000 </r>
       <r>   -12.2624     0.0000     1.0000 </r>
       <r>   -12.1982     0.0000     1.0000 </r>
       <r>   -12.1341     0.0000     1.0000 </r>
       <r>   -12.0699     0.0000     1.0000 </r>
       <r>   -12.0057     0.0000     1.0000 </r>
       <r>   -11.9415     0.0000     1.0000 </r>
       <r>   -11.8774     0.0000     1.0000 </r>
       <r>   -11.8132     0.0000     1.0000 </r>
       <r>   -11.7490     0.0000     1.0000 </r>
       <r>   -11.6848     0.0000     1.0000 </r>
       <r>   -11.6207     0.0000     1.0000 </r>
       <r>   -11.5565     0.0000     1.0000 </r>
       <r>   -11.4923     0.0000     1.0000 </r>
       <r>   -11.4281     0.0000     1.0000 </r>
       <r>   -11.3640     0.0000     1.0000 </r>
       <r>   -11.2998     0.0000     1.0000 </r>
       <r>   -11.2356     0.0000     1.0000 </r>
       <r>   -11.1714     0.0000     1.0000 </r>
       <r>   -11.1073     0.0000     1.0000 </r>
       <r>   -11.0431     0.0000     1.0000 </r>
       <r>   -10.9789     0.0000     1.0000 </r>
       <r>   -10.9148     0.0000     1.0000 </r>
       <r>   -10.8506     0.0000     1.0000 </r>
       <r>   -10.7864     0.0000     1.0000 </r>
       <r>   -10.7222     0.0000     1.0000 </r>
       <r>   -10.6581     0.0000     1.0000 </r>
       <r>   -10.5939     0.0000     1.0000 </r>
       <r>   -10.5297     0.0000     1.0000 </r>
       <r>   -10.4655     0.0000     1.0000 </r>
       <r>   -10.4014     0.0000     1.0000 </r>
       <r>   -10.3372     0.0000     1.0000 </r>
       <r>   -10.2730    -0.0000     1.0000 </r>
       <r>   -10.2088    -0.0000     1.0000 </r>
       <r>   -10.1447    -0.0000     1.0000 </r>
       <r>   -10.0805    -0.0000     1.0000 </r>
       <r>   -10.0163    -0.0000     1.0000 </r>
       <r>    -9.9521    -0.0000     1.0000 </r>
       <r>    -9.8880    -0.0000     1.0000 </r>
       <r>    -9.8238    -0.0001     1.0000 </r>
       <r>    -9.7596    -0.0034     0.9998 </r>
       <r>    -9.6954    -0.0739     0.9950 </r>
       <r>    -9.6313    -0.5929     0.9570 </r>
       <r>    -9.5671    -0.7658     0.9078 </r>
       <r>    -9.5029     7.1370     1.3659 </r>
       <r>    -9.4387    21.7076     2.7589 </r>
       <r>    -9.3746    17.7559     3.8984 </r>
       <r>    -9.3104     3.0278     4.0927 </r>
       <r>    -9.2462    -1.0796     4.0234 </r>
       <r>    -9.1820    -0.3358     4.0019 </r>
       <r>    -9.1179    -0.0282     4.0001 </r>
       <r>    -9.0537    -0.0009     4.0000 </r>
       <r>    -8.9895    -0.0000     4.0000 </r>
       <r>    -8.9254    -0.0000     4.0000 </r>
       <r>    -8.8612    -0.0000     4.0000 </r>
       <r>    -8.7970    -0.0000     4.0000 </r>
       <r>    -8.7328     0.0000     4.0000 </r>
       <r>    -8.6687     0.0000     4.0000 </r>
       <r>    -8.6045     0.0000     4.0000 </r>
       <r>    -8.5403     0.0000     4.0000 </r>
       <r>    -8.4761     0.0000     4.0000 </r>
       <r>    -8.4120     0.0000     4.0000 </r>
       <r>    -8.3478     0.0000     4.0000 </r>
       <r>    -8.2836     0.0000     4.0000 </r>
       <r>    -8.2194     0.0000     4.0000 </r>
       <r>    -8.1553     0.0000     4.0000 </r>
       <r>    -8.0911     0.0000     4.0000 </r>
       <r>    -8.0269     0.0000     4.0000 </r>
       <r>    -7.9627     0.0000     4.0000 </r>
       <r>    -7.8986     0.0000     4.0000 </r>
       <r>    -7.8344     0.0000     4.0000 </r>
       <r>    -7.7702     0.0000     4.0000 </r>
       <r>    -7.7060     0.0000     4.0000 </r>
       <r>    -7.6419     0.0000     4.0000 </r>
       <r>    -7.5777     0.0000     4.0000 </r>
       <r>    -7.5135     0.0000     4.0000 </r>
       <r>    -7.4493     0.0000     4.0000 </r>
       <r>    -7.3852     0.0000     4.0000 </r>
       <r>    -7.3210     0.0000     4.0000 </r>
       <r>    -7.2568     0.0000     4.0000 </r>
       <r>    -7.1926     0.0000     4.0000 </r>
       <r>    -7.1285     0.0000     4.0000 </r>
       <r>    -7.0643     0.0000     4.0000 </r>
       <r>    -7.0001     0.0000     4.0000 </r>
       <r>    -6.9359     0.0000     4.0000 </r>
       <r>    -6.8718     0.0000     4.0000 </r>
       <r>    -6.8076     0.0000     4.0000 </r>
       <r>    -6.7434     0.0000     4.0000 </r>
       <r>    -6.6793     0.0000     4.0000 </r>
       <r>    -6.6151     0.0000     4.0000 </r>
       <r>    -6.5509     0.0000     4.0000 </r>
       <r>    -6.4867     0.0000     4.0000 </r>
       <r>    -6.4226     0.0000     4.0000 </r>
       <r>    -6.3584     0.0000     4.0000 </r>
       <r>    -6.2942     0.0000     4.0000 </r>
       <r>    -6.2300     0.0000     4.0000 </r>
       <r>    -6.1659     0.0000     4.0000 </r>
       <r>    -6.1017     0.0000     4.0000 </r>
       <r>    -6.0375     0.0000     4.0000 </r>
       <r>    -5.9733     0.0000     4.0000 </r>
       <r>    -5.9092     0.0000     4.0000 </r>
       <r>    -5.8450     0.0000     4.0000 </r>
       <r>    -5.7808     0.0000     4.0000 </r>
       <r>    -5.7166     0.0000     4.0000 </r>
       <r>    -5.6525     0.0000     4.0000 </r>
       <r>    -5.5883     0.0000     4.0000 </r>
       <r>    -5.5241     0.0000     4.0000 </r>
       <r>    -5.4599     0.0000     4.0000 </r>
       <r>    -5.3958     0.0000     4.0000 </r>
       <r>    -5.3316     0.0000     4.0000 </r>
       <r>    -5.2674     0.0000     4.0000 </r>
       <r>    -5.2032     0.0000     4.0000 </r>
       <r>    -5.1391     0.0000     4.0000 </r>
       <r>    -5.0749     0.0000     4.0000 </r>
       <r>    -5.0107     0.0000     4.0000 </r>
       <r>    -4.9465     0.0000     4.0000 </r>
       <r>    -4.8824     0.0000     4.0000 </r>
       <r>    -4.8182     0.0000     4.0000 </r>
       <r>    -4.7540     0.0000     4.0000 </r>
       <r>    -4.6899     0.0000     4.0000 </r>
       <r>    -4.6257     0.0000     4.0000 </r>
       <r>    -4.5615     0.0000     4.0000 </r>
       <r>    -4.4973     0.0000     4.0000 </r>
       <r>    -4.4332     0.0000     4.0000 </r>
       <r>    -4.3690     0.0000     4.0000 </r>
       <r>    -4.3048     0.0000     4.0000 </r>
       <r>    -4.2406     0.0000     4.0000 </r>
       <r>    -4.1765     0.0000     4.0000 </r>
       <r>    -4.1123     0.0000     4.0000 </r>
       <r>    -4.0481     0.0000     4.0000 </r>
       <r>    -3.9839     0.0000     4.0000 </r>
       <r>    -3.9198     0.0000     4.0000 </r>
       <r>    -3.8556     0.0000     4.0000 </r>
       <r>    -3.7914     0.0000     4.0000 </r>
       <r>    -3.7272     0.0000     4.0000 </r>
       <r>    -3.6631     0.0000     4.0000 </r>
       <r>    -3.5989     0.0000     4.0000 </r>
       <r>    -3.5347     0.0000     4.0000 </r>
       <r>    -3.4705     0.0000     4.0000 </r>
       <r>    -3.4064     0.0000     4.0000 </r>
       <r>    -3.3422     0.0000     4.0000 </r>
       <r>    -3.2780     0.0000     4.0000 </r>
       <r>    -3.2138     0.0000     4.0000 </r>
       <r>    -3.1497     0.0000     4.0000 </r>
       <r>    -3.0855     0.0000     4.0000 </r>
       <r>    -3.0213     0.0000     4.0000 </r>
       <r>    -2.9571     0.0000     4.0000 </r>
       <r>    -2.8930     0.0000     4.0000 </r>
       <r>    -2.8288     0.0000     4.0000 </r>
       <r>    -2.7646     0.0000     4.0000 </r>
       <r>    -2.7005     0.0000     4.0000 </r>
       <r>    -2.6363     0.0000     4.0000 </r>
       <r>    -2.5721     0.0000     4.0000 </r>
       <r>    -2.5079     0.0000     4.0000 </r>
       <r>    -2.4438     0.0000     4.0000 </r>
       <r>    -2.3796     0.0000     4.0000 </r>
       <r>    -2.3154     0.0000     4.0000 </r>
       <r>    -2.2512     0.0000     4.0000 </r>
       <r>    -2.1871     0.0000     4.0000 </r>
       <r>    -2.1229     0.0000     4.0000 </r>
       <r>    -2.0587     0.0000     4.0000 </r>
       <r>    -1.9945     0.0000     4.0000 </r>
       <r>    -1.9304     0.0000     4.0000 </r>
       <r>    -1.8662     0.0000     4.0000 </r>
       <r>    -1.8020     0.0000     4.0000 </r>
       <r>    -1.7378     0.0000     4.0000 </r>
       <r>    -1.6737     0.0000     4.0000 </r>
       <r>    -1.6095     0.0000     4.0000 </r>
       <r>    -1.5453     0.0000     4.0000 </r>
       <r>    -1.4811     0.0000     4.0000 </r>
       <r>    -1.4170     0.0000     4.0000 </r>
       <r>    -1.3528     0.0000     4.0000 </r>
       <r>    -1.2886     0.0000     4.0000 </r>
       <r>    -1.2244    -0.0000     4.0000 </r>
       <r>    -1.1603    -0.0000     4.0000 </r>
       <r>    -1.0961    -0.0000     4.0000 </r>
       <r>    -1.0319    -0.0000     4.0000 </r>
       <r>    -0.9677    -0.0000     4.0000 </r>
       <r>    -0.9036    -0.0000     4.0000 </r>
       <r>    -0.8394    -0.0000     4.0000 </r>
       <r>    -0.7752    -0.0001     4.0000 </r>
       <r>    -0.7111    -0.0026     3.9998 </r>
       <r>    -0.6469    -0.0485     3.9967 </r>
       <r>    -0.5827    -0.3021     3.9773 </r>
       <r>    -0.5185     0.0209     3.9787 </r>
       <r>    -0.4544     4.0779     4.2404 </r>
       <r>    -0.3902     7.9989     4.7537 </r>
       <r>    -0.3260     4.1538     5.0203 </r>
       <r>    -0.2618     0.0411     5.0229 </r>
       <r>    -0.1977    -0.3548     5.0001 </r>
       <r>    -0.1335    -0.3618     4.9769 </r>
       <r>    -0.0693    -0.2039     4.9638 </r>
       <r>    -0.0051     2.5792     5.1293 </r>
       <r>     0.0590     7.3439     5.6006 </r>
       <r>     0.1232    23.1641     7.0872 </r>
       <r>     0.1874    44.5222     9.9443 </r>
       <r>     0.2516    30.0349    11.8718 </r>
       <r>     0.3157     4.3398    12.1503 </r>
       <r>     0.3799    -1.7206    12.0399 </r>
       <r>     0.4441    -0.5627    12.0038 </r>
       <r>     0.5083    -0.0565    12.0002 </r>
       <r>     0.5724    -0.0023    12.0000 </r>
       <r>     0.6366    -0.0000    12.0000 </r>
       <r>     0.7008    -0.0000    12.0000 </r>
       <r>     0.7650    -0.0000    12.0000 </r>
       <r>     0.8291    -0.0000    12.0000 </r>
       <r>     0.8933     0.0000    12.0000 </r>
       <r>     0.9575     0.0000    12.0000 </r>
       <r>     1.0217     0.0000    12.0000 </r>
       <r>     1.0858     0.0000    12.0000 </r>
       <r>     1.1500     0.0000    12.0000 </r>
       <r>     1.2142     0.0000    12.0000 </r>
      </set>
     </set>
    </array>
   </total>
  </dos>
 </calculation>
 <structure name="finalpos" >
  <crystal>
   <varray name="basis" >
    <v>      31.25823600       0.00000000       0.00000000 </v>
    <v>       0.00000000      31.25823600       0.00000000 </v>
    <v>       0.00000000       0.00000000      31.25823600 </v>
   </varray>
   <i name="volume">  30541.71339103 </i>
   <varray name="rec_basis" >
    <v>       0.03199157       0.00000000       0.00000000 </v>
    <v>       0.00000000       0.03199157       0.00000000 </v>
    <v>       0.00000000       0.00000000       0.03199157 </v>
   </varray>
  </crystal>
  <varray name="positions" >
   <v>       0.50000000       0.50000000       0.50000000 </v>
   <v>       0.52024201       0.52024201       0.52024201 </v>
   <v>       0.47975799       0.47975799       0.52024201 </v>
   <v>       0.52024201       0.47975799       0.47975799 </v>
   <v>       0.47975799       0.52024201       0.47927812 </v>
  </varray>
 </structure>
</modeling>
