<?xml version="1.0" encoding="ISO-8859-1"?>
<modeling>
 <generator>
  <i name="program" type="string">vasp </i>
  <i name="version" type="string">6.3.1  </i>
  <i name="subversion" type="string">04May22 (build May 31 2024 12:10:13) complex                          parallel </i>
  <i name="platform" type="string">LinuxIFC </i>
  <i name="date" type="string">2024 06 19 </i>
  <i name="time" type="string">10:09:20 </i>
 </generator>
 <incar>
  <i type="string" name="SYSTEM">bulk relax</i>
  <i type="int" name="ISTART">     0</i>
  <i type="string" name="PREC">High</i>
  <i type="string" name="ALGO">Normal</i>
  <i type="int" name="ISPIN">     2</i>
  <i type="int" name="MAXMIX">    14</i>
  <i type="int" name="ICHARG">     2</i>
  <i type="int" name="NELM">   150</i>
  <i type="int" name="NELMIN">     8</i>
  <i type="int" name="IBRION">     5</i>
  <i type="int" name="NFREE">     2</i>
  <i name="EDIFF">      0.00000100</i>
  <i name="EDIFFG">     -0.03000000</i>
  <i type="int" name="NSW">     1</i>
  <i type="int" name="ISIF">     2</i>
  <i type="int" name="ISYM">     0</i>
  <i name="ENCUT">    500.00000000</i>
  <i name="POTIM">      0.01500000</i>
  <i type="string" name="LREAL">Auto</i>
  <i type="int" name="ISMEAR">     1</i>
  <i name="SIGMA">      0.10000000</i>
  <i type="logical" name="LWAVE"> F  </i>
  <i type="logical" name="LCHARG"> F  </i>
  <i type="string" name="GGA">PE</i>
  <i type="int" name="IVDW">    12</i>
 </incar>
 <primitive_cell>
  <structure name="primitive_cell" >
   <crystal>
    <varray name="basis" >
     <v>      30.00000000       0.00000000       0.00000000 </v>
     <v>       0.00000000      31.52647800       0.00000000 </v>
     <v>       0.00000000       0.00000000      30.59630900 </v>
    </varray>
    <i name="volume">  28937.81587709 </i>
    <varray name="rec_basis" >
     <v>       0.03333333       0.00000000       0.00000000 </v>
     <v>       0.00000000       0.03171937       0.00000000 </v>
     <v>       0.00000000       0.00000000       0.03268368 </v>
    </varray>
   </crystal>
   <varray name="positions" >
    <v>       0.50000000       0.50000000       0.50971785 </v>
    <v>       0.50000000       0.52437498       0.49026868 </v>
    <v>       0.50000000       0.47562502       0.49026868 </v>
   </varray>
  </structure>
  <varray name="primitive_index" >
   <v type="int" >        1 </v>
   <v type="int" >        2 </v>
   <v type="int" >        3 </v>
  </varray>
 </primitive_cell>
 <kpoints>
  <generation param="Gamma">
   <v type="int" name="divisions">       1        1        1 </v>
   <v name="usershift">      0.00000000       0.00000000       0.00000000 </v>
   <v name="genvec1">      1.00000000       0.00000000       0.00000000 </v>
   <v name="genvec2">      0.00000000       1.00000000       0.00000000 </v>
   <v name="genvec3">      0.00000000       0.00000000       1.00000000 </v>
   <v name="shift">      0.00000000       0.00000000       0.00000000 </v>
  </generation>
  <varray name="kpointlist" >
   <v>       0.00000000       0.00000000       0.00000000 </v>
  </varray>
  <varray name="weights" >
   <v>       1.00000000 </v>
  </varray>
 </kpoints>
 <parameters>
  <separator name="general" >
   <i type="string" name="SYSTEM">bulk relax</i>
   <i type="logical" name="LCOMPAT"> F  </i>
  </separator>
  <separator name="electronic" >
   <i type="string" name="PREC">high</i>
   <i name="ENMAX">    500.00000000</i>
   <i name="ENAUG">    605.39200000</i>
   <i name="EDIFF">      0.00000100</i>
   <i type="int" name="IALGO">    38</i>
   <i type="int" name="IWAVPR">    11</i>
   <i type="int" name="NBANDS">    12</i>
   <i type="int" name="NBANDSLOW">    -1</i>
   <i type="int" name="NBANDSHIGH">    -1</i>
   <i name="NELECT">      8.00000000</i>
   <i type="int" name="TURBO">     0</i>
   <i type="int" name="IRESTART">     0</i>
   <i type="int" name="NREBOOT">     0</i>
   <i type="int" name="NMIN">     0</i>
   <i name="EREF">      0.00000000</i>
   <separator name="electronic smearing" >
    <i type="int" name="ISMEAR">     1</i>
    <i name="SIGMA">      0.10000000</i>
    <i name="KSPACING">      0.50000000</i>
    <i type="logical" name="KGAMMA"> T  </i>
    <i type="logical" name="KBLOWUP"> T  </i>
   </separator>
   <separator name="electronic projectors" >
    <i type="logical" name="LREAL"> T  </i>
    <v name="ROPT">     -0.00040000     -0.00040000</v>
    <i type="int" name="LMAXPAW">  -100</i>
    <i type="int" name="LMAXMIX">     2</i>
    <i type="logical" name="NLSPLINE"> F  </i>
   </separator>
   <separator name="electronic startup" >
    <i type="int" name="ISTART">     0</i>
    <i type="int" name="ICHARG">     2</i>
    <i type="int" name="INIWAV">     1</i>
   </separator>
   <separator name="electronic spin" >
    <i type="int" name="ISPIN">     2</i>
    <i type="logical" name="LNONCOLLINEAR"> F  </i>
    <v name="MAGMOM">      1.00000000      1.00000000      1.00000000</v>
    <i name="NUPDOWN">     -1.00000000</i>
    <i type="logical" name="LSORBIT"> F  </i>
    <v name="SAXIS">      0.00000000      0.00000000      1.00000000</v>
    <i type="logical" name="LSPIRAL"> F  </i>
    <v name="QSPIRAL">      0.00000000      0.00000000      0.00000000</v>
    <i type="logical" name="LZEROZ"> F  </i>
   </separator>
   <separator name="electronic exchange-correlation" >
    <i type="logical" name="LASPH"> F  </i>
    <i type="logical" name="LMETAGGA"> F  </i>
   </separator>
   <separator name="electronic convergence" >
    <i type="int" name="NELM">   150</i>
    <i type="int" name="NELMDL">    -5</i>
    <i type="int" name="NELMIN">     8</i>
    <i name="ENINI">    500.00000000</i>
    <separator name="electronic convergence detail" >
     <i type="logical" name="LDIAG"> T  </i>
     <i type="logical" name="LSUBROT"> F  </i>
     <i name="WEIMIN">      0.00100000</i>
     <i name="EBREAK">      0.00000002</i>
     <i name="DEPER">      0.30000000</i>
     <i type="int" name="NRMM">     4</i>
     <i name="TIME">      0.40000000</i>
    </separator>
   </separator>
   <separator name="electronic mixer" >
    <i name="AMIX">      0.40000000</i>
    <i name="BMIX">      1.00000000</i>
    <i name="AMIN">      0.10000000</i>
    <i name="AMIX_MAG">      1.60000000</i>
    <i name="BMIX_MAG">      1.00000000</i>
    <separator name="electronic mixer details" >
     <i type="int" name="IMIX">     4</i>
     <i type="logical" name="MIXFIRST"> F  </i>
     <i type="int" name="MAXMIX">    14</i>
     <i name="WC">    100.00000000</i>
     <i type="int" name="INIMIX">     1</i>
     <i type="int" name="MIXPRE">     1</i>
     <i type="int" name="MREMOVE">     5</i>
    </separator>
   </separator>
   <separator name="electronic dipolcorrection" >
    <i type="logical" name="LDIPOL"> F  </i>
    <i type="logical" name="LMONO"> F  </i>
    <i type="int" name="IDIPOL">     0</i>
    <i name="EPSILON">      1.00000000</i>
    <v name="DIPOL">   -100.00000000   -100.00000000   -100.00000000</v>
    <i name="EFIELD">      0.00000000</i>
   </separator>
  </separator>
  <separator name="grids" >
   <i type="int" name="NGX">   224</i>
   <i type="int" name="NGY">   240</i>
   <i type="int" name="NGZ">   224</i>
   <i type="int" name="NGXF">   320</i>
   <i type="int" name="NGYF">   350</i>
   <i type="int" name="NGZF">   336</i>
   <i type="logical" name="ADDGRID"> F  </i>
  </separator>
  <separator name="ionic" >
   <i type="int" name="NSW">    73</i>
   <i type="int" name="IBRION">     5</i>
   <i type="int" name="MDALGO">     0</i>
   <i type="int" name="ISIF">     2</i>
   <i name="PSTRESS">      0.00000000</i>
   <i name="EDIFFG">     -0.03000000</i>
   <i type="int" name="NFREE">     2</i>
   <i name="POTIM">      0.01500000</i>
   <i name="SMASS">     -3.00000000</i>
   <i name="SCALEE">      1.00000000</i>
  </separator>
  <separator name="ionic md" >
   <i name="TEBEG">      0.00010000</i>
   <i name="TEEND">      0.00010000</i>
   <i type="int" name="NBLOCK">     1</i>
   <i type="int" name="KBLOCK">    73</i>
   <i type="int" name="NPACO">   256</i>
   <i name="APACO">     10.00000000</i>
  </separator>
  <separator name="symmetry" >
   <i type="int" name="ISYM">     0</i>
   <i name="SYMPREC">      0.00001000</i>
  </separator>
  <separator name="dos" >
   <i type="int" name="LORBIT">     0</i>
   <v name="RWIGS">     -1.00000000     -1.00000000</v>
   <i type="int" name="NEDOS">   301</i>
   <i name="EMIN">     10.00000000</i>
   <i name="EMAX">    -10.00000000</i>
   <i name="EFERMI">      0.00000000</i>
  </separator>
  <separator name="writing" >
   <i type="int" name="NWRITE">     2</i>
   <i type="logical" name="LWAVE"> F  </i>
   <i type="logical" name="LDOWNSAMPLE"> F  </i>
   <i type="logical" name="LCHARG"> F  </i>
   <i type="logical" name="LPARD"> F  </i>
   <i type="logical" name="LVTOT"> F  </i>
   <i type="logical" name="LVHAR"> F  </i>
   <i type="logical" name="LELF"> F  </i>
   <i type="logical" name="LOPTICS"> F  </i>
   <v name="STM">      0.00000000      0.00000000      0.00000000      0.00000000      0.00000000      0.00000000      0.00000000</v>
  </separator>
  <separator name="performance" >
   <i type="int" name="NPAR">    12</i>
   <i type="int" name="NSIM">     4</i>
   <i type="int" name="NBLK">    -1</i>
   <i type="logical" name="LPLANE"> T  </i>
   <i type="logical" name="LSCALAPACK"> T  </i>
   <i type="logical" name="LSCAAWARE"> F  </i>
   <i type="logical" name="LSCALU"> F  </i>
   <i type="logical" name="LASYNC"> F  </i>
   <i type="logical" name="LORBITALREAL"> F  </i>
  </separator>
  <separator name="miscellaneous" >
   <i type="int" name="IDIOT">     3</i>
   <i type="int" name="PHON_NSTRUCT">    -1</i>
   <i type="logical" name="LMUSIC"> F  </i>
   <v name="POMASS">     16.00000000      1.00000000</v>
   <v name="DARWINR">      0.00000000      0.00000000</v>
   <v name="DARWINV">      1.00000000      1.00000000</v>
   <i type="logical" name="LCORR"> T  </i>
  </separator>
  <i type="logical" name="GGA_COMPAT"> T  </i>
  <i type="logical" name="LBERRY"> F  </i>
  <i type="int" name="ICORELEVEL">     0</i>
  <i type="logical" name="LDAU"> F  </i>
  <i type="int" name="I_CONSTRAINED_M">     0</i>
  <separator name="electronic exchange-correlation" >
   <i type="string" name="GGA">PE</i>
   <i type="int" name="VOSKOWN">     0</i>
   <i type="logical" name="LHFCALC"> F  </i>
   <i type="string" name="PRECFOCK"></i>
   <i type="logical" name="LSYMGRAD"> F  </i>
   <i type="logical" name="LHFONE"> F  </i>
   <i type="logical" name="LRHFCALC"> F  </i>
   <i type="logical" name="LTHOMAS"> F  </i>
   <i type="logical" name="LMODELHF"> F  </i>
   <i type="logical" name="LFOCKACE"> F  </i>
   <i name="ENCUT4O">     -1.00000000</i>
   <i type="int" name="EXXOEP">     0</i>
   <i type="int" name="FOURORBIT">     0</i>
   <i name="AEXX">      0.00000000</i>
   <i name="HFALPHA">      0.00000000</i>
   <i name="MCALPHA">      0.00000000</i>
   <i name="ALDAX">      1.00000000</i>
   <i name="AGGAX">      1.00000000</i>
   <i name="ALDAC">      1.00000000</i>
   <i name="AGGAC">      1.00000000</i>
   <i type="int" name="NKREDX">     1</i>
   <i type="int" name="NKREDY">     1</i>
   <i type="int" name="NKREDZ">     1</i>
   <i type="logical" name="SHIFTRED"> F  </i>
   <i type="logical" name="ODDONLY"> F  </i>
   <i type="logical" name="EVENONLY"> F  </i>
   <i type="int" name="LMAXFOCK">     0</i>
   <i type="int" name="NMAXFOCKAE">     0</i>
   <i type="logical" name="LFOCKAEDFT"> F  </i>
   <i name="HFSCREEN">      0.00000000</i>
   <i name="HFSCREENC">      0.00000000</i>
   <i type="int" name="NBANDSGWLOW">     0</i>
  </separator>
  <separator name="vdW DFT" >
   <i type="logical" name="LUSE_VDW"> F  </i>
   <i name="Zab_VDW">     -0.84910000</i>
   <i name="PARAM1">      0.12340000</i>
   <i name="PARAM2">      1.00000000</i>
   <i name="PARAM3">      0.00000000</i>
  </separator>
  <separator name="model GW" >
   <i type="int" name="MODEL_GW">     0</i>
   <i name="MODEL_EPS0">   5787.56317542</i>
   <i name="MODEL_ALPHA">      1.00000000</i>
  </separator>
  <separator name="linear response parameters" >
   <i type="logical" name="LEPSILON"> F  </i>
   <i type="logical" name="LRPA"> F  </i>
   <i type="logical" name="LNABLA"> F  </i>
   <i type="logical" name="LVEL"> F  </i>
   <i name="CSHIFT">      0.10000000</i>
   <i name="OMEGAMAX">     -1.00000000</i>
   <i name="DEG_THRESHOLD">      0.00200000</i>
   <i name="RTIME">     -0.10000000</i>
   <i name="WPLASMAI">      0.00000000</i>
   <v name="DFIELD">      0.00000000      0.00000000      0.00000000</v>
   <v name="WPLASMA">      0.00000000      0.00000000      0.00000000      0.00000000      0.00000000      0.00000000      0.00000000      0.00000000      0.00000000</v>
  </separator>
  <separator name="orbital magnetization" >
   <i type="logical" name="NUCIND"> F  </i>
   <v name="MAGPOS">      0.00000000      0.00000000      0.00000000</v>
   <i type="logical" name="LNICSALL"> T  </i>
   <i type="logical" name="ORBITALMAG"> F  </i>
   <i type="logical" name="LMAGBLOCH"> F  </i>
   <i type="logical" name="LCHIMAG"> F  </i>
   <i type="logical" name="LGAUGE"> T  </i>
   <i type="int" name="MAGATOM">     0</i>
   <v name="MAGDIPOL">      0.00000000      0.00000000      0.00000000</v>
   <v name="AVECCONST">      0.00000000      0.00000000      0.00000000</v>
  </separator>
  <separator name="response functions" >
   <i type="logical" name="LFINITE_TEMPERATURE"> F  </i>
   <i type="logical" name="LADDER"> F  </i>
   <i type="logical" name="LRPAFORCE"> F  </i>
   <i type="logical" name="LFXC"> F  </i>
   <i type="logical" name="LHARTREE"> T  </i>
   <i type="int" name="IBSE">     0</i>
   <v type="int" name="KPOINT">    -1     0     0     0</v>
   <i type="logical" name="LTCTC"> F  </i>
   <i type="logical" name="LTCTE"> F  </i>
   <i type="logical" name="LTETE"> F  </i>
   <i type="logical" name="LTRIPLET"> F  </i>
   <i type="logical" name="LFXCEPS"> F  </i>
   <i type="logical" name="LFXHEG"> F  </i>
   <i type="int" name="NATURALO">     2</i>
   <i type="logical" name="LHOLEGF"> F  </i>
   <i type="logical" name="L2ORDER"> F  </i>
   <i type="logical" name="LDMP1"> F  </i>
   <i type="logical" name="LMP2LT"> F  </i>
   <i type="logical" name="LSMP2LT"> F  </i>
   <i type="logical" name="LGWLF"> F  </i>
   <i name="ENCUTGW">     -2.00000000</i>
   <i name="ENCUTGWSOFT">     -2.00000000</i>
   <i name="ENCUTLF">     -1.00000000</i>
   <i type="logical" name="LESF_SPLINES"> F  </i>
   <i type="int" name="LMAXMP2">    -1</i>
   <i name="SCISSOR">      0.00000000</i>
   <i type="int" name="NOMEGA">     0</i>
   <i type="int" name="NOMEGAR">     0</i>
   <i type="int" name="NBANDSGW">    -1</i>
   <i type="int" name="NBANDSO">    -1</i>
   <i type="int" name="NBANDSV">    -1</i>
   <i type="int" name="NELMGW">     1</i>
   <i type="int" name="NELMHF">     1</i>
   <i type="int" name="DIM">     3</i>
   <i type="int" name="IESPILON">     4</i>
   <i type="int" name="ANTIRES">     0</i>
   <i name="OMEGAMAX">    -30.00000000</i>
   <i name="OMEGAMIN">    -30.00000000</i>
   <i name="OMEGATL">   -200.00000000</i>
   <i type="int" name="OMEGAGRID">     0</i>
   <i name="CSHIFT">     -0.10000000</i>
   <i type="logical" name="LSELFENERGY"> F  </i>
   <i type="logical" name="LSPECTRAL"> F  </i>
   <i type="logical" name="LSPECTRALGW"> F  </i>
   <i type="logical" name="LSINGLES"> F  </i>
   <i type="logical" name="LFERMIGW"> F  </i>
   <i type="logical" name="ODDONLYGW"> F  </i>
   <i type="logical" name="EVENONLYGW"> F  </i>
   <i type="int" name="NKREDLFX">     1</i>
   <i type="int" name="NKREDLFY">     1</i>
   <i type="int" name="NKREDLFZ">     1</i>
   <i type="int" name="MAXMEM">  2800</i>
   <i type="int" name="TELESCOPE">     0</i>
   <i type="int" name="NTAUPAR">    -1</i>
   <i type="int" name="NOMEGAPAR">    -1</i>
   <i name="DAMP_NEWTON">      0.80000001</i>
   <i name="LAMBDA">      1.00000000</i>
  </separator>
  <separator name="External order field" >
   <i name="OFIELD_KAPPA">      0.00000000</i>
   <v name="OFIELD_K">      0.00000000      0.00000000      0.00000000</v>
   <i name="OFIELD_Q6_NEAR">      0.00000000</i>
   <i name="OFIELD_Q6_FAR">      0.00000000</i>
   <i name="OFIELD_A">      0.00000000</i>
  </separator>
  <separator name="optional k-points parameters" >
   <i type="int" name="KPOINTS_OPT_MODE">     1</i>
   <i type="logical" name="LKPOINTS_OPT"> F  </i>
  </separator>
 </parameters>
 <atominfo>
  <atoms>       3 </atoms>
  <types>       2 </types>
  <array name="atoms" >
   <dimension dim="1">ion</dimension>
   <field type="string">element</field>
   <field type="int">atomtype</field>
   <set>
    <rc><c>O </c><c>   1</c></rc>
    <rc><c>H </c><c>   2</c></rc>
    <rc><c>H </c><c>   2</c></rc>
   </set>
  </array>
  <array name="atomtypes" >
   <dimension dim="1">type</dimension>
   <field type="int">atomspertype</field>
   <field type="string">element</field>
   <field>mass</field>
   <field>valence</field>
   <field type="string">pseudopotential</field>
   <set>
    <rc><c>   1</c><c>O </c><c>     16.00000000</c><c>      6.00000000</c><c>  PAW_PBE O 08Apr2002                   </c></rc>
    <rc><c>   2</c><c>H </c><c>      1.00000000</c><c>      1.00000000</c><c>  PAW_PBE H 15Jun2001                   </c></rc>
   </set>
  </array>
 </atominfo>
 <structure name="initialpos" >
  <crystal>
   <varray name="basis" >
    <v>      30.00000000       0.00000000       0.00000000 </v>
    <v>       0.00000000      31.52647800       0.00000000 </v>
    <v>       0.00000000       0.00000000      30.59630900 </v>
   </varray>
   <i name="volume">  28937.81587709 </i>
   <varray name="rec_basis" >
    <v>       0.03333333       0.00000000       0.00000000 </v>
    <v>       0.00000000       0.03171937       0.00000000 </v>
    <v>       0.00000000       0.00000000       0.03268368 </v>
   </varray>
  </crystal>
  <varray name="positions" >
   <v>       0.50000000       0.50000000       0.50971785 </v>
   <v>       0.50000000       0.52437498       0.49026868 </v>
   <v>       0.50000000       0.47562502       0.49026868 </v>
  </varray>
 </structure>
 <calculation>
  <scstep>
   <time name="dav">    5.05    5.06</time>
   <time name="total">    8.83    8.90</time>
   <energy>
    <i name="alphaZ">      0.00774942 </i>
    <i name="ewald">    144.61349475 </i>
    <i name="hartreedc">   -503.36675999 </i>
    <i name="XCdc">     32.99227915 </i>
    <i name="pawpsdc">    349.99468356 </i>
    <i name="pawaedc">   -351.80531939 </i>
    <i name="eentropy">      0.00126914 </i>
    <i name="bandstr">    -54.60093399 </i>
    <i name="atom">    457.32929435 </i>
    <i name="e_fr_energy">     75.16575699 </i>
    <i name="e_wo_entrp">     75.16448785 </i>
    <i name="e_0_energy">     75.16533395 </i>
   </energy>
  </scstep>
  <scstep>
   <time name="dav">    4.52    4.53</time>
   <time name="total">    4.53    4.54</time>
   <energy>
    <i name="e_fr_energy">     17.55502874 </i>
    <i name="e_wo_entrp">     17.55212978 </i>
    <i name="e_0_energy">     17.55406242 </i>
   </energy>
  </scstep>
  <scstep>
   <time name="dav">    2.94    2.95</time>
   <time name="total">    2.95    2.96</time>
   <energy>
    <i name="e_fr_energy">     -9.92734894 </i>
    <i name="e_wo_entrp">     -9.93024790 </i>
    <i name="e_0_energy">     -9.92831526 </i>
   </energy>
  </scstep>
  <scstep>
   <time name="dav">    2.95    2.95</time>
   <time name="total">    2.96    2.96</time>
   <energy>
    <i name="e_fr_energy">    -12.88908006 </i>
    <i name="e_wo_entrp">    -12.89197901 </i>
    <i name="e_0_energy">    -12.89004638 </i>
   </energy>
  </scstep>
  <scstep>
   <time name="dav">    3.99    3.99</time>
   <time name="total">    5.17    5.19</time>
   <energy>
    <i name="e_fr_energy">    -12.91776250 </i>
    <i name="e_wo_entrp">    -12.92066146 </i>
    <i name="e_0_energy">    -12.91872882 </i>
   </energy>
  </scstep>
  <scstep>
   <time name="dav">    3.46    3.46</time>
   <time name="total">    8.45    8.46</time>
   <energy>
    <i name="e_fr_energy">     -4.17735367 </i>
    <i name="e_wo_entrp">     -4.18025262 </i>
    <i name="e_0_energy">     -4.17831999 </i>
   </energy>
  </scstep>
  <scstep>
   <time name="dav">    3.98    3.98</time>
   <time name="total">    8.99    8.99</time>
   <energy>
    <i name="e_fr_energy">    -10.49005591 </i>
    <i name="e_wo_entrp">    -10.49615278 </i>
    <i name="e_0_energy">    -10.49208820 </i>
   </energy>
  </scstep>
  <scstep>
   <time name="dav">    3.47    3.47</time>
   <time name="total">    8.48    8.49</time>
   <energy>
    <i name="e_fr_energy">    -11.33662161 </i>
    <i name="e_wo_entrp">    -11.33952083 </i>
    <i name="e_0_energy">    -11.33758802 </i>
   </energy>
  </scstep>
  <scstep>
   <time name="dav">    3.99    4.00</time>
   <time name="total">    8.97    8.98</time>
   <energy>
    <i name="e_fr_energy">    -12.66172296 </i>
    <i name="e_wo_entrp">    -12.66752439 </i>
    <i name="e_0_energy">    -12.66365677 </i>
   </energy>
  </scstep>
  <scstep>
   <time name="dav">    3.99    3.99</time>
   <time name="total">    9.00    9.00</time>
   <energy>
    <i name="e_fr_energy">    -12.91423694 </i>
    <i name="e_wo_entrp">    -12.92044999 </i>
    <i name="e_0_energy">    -12.91630795 </i>
   </energy>
  </scstep>
  <scstep>
   <time name="dav">    2.93    2.93</time>
   <time name="total">    7.96    7.96</time>
   <energy>
    <i name="e_fr_energy">    -13.04674217 </i>
    <i name="e_wo_entrp">    -13.04995777 </i>
    <i name="e_0_energy">    -13.04781404 </i>
   </energy>
  </scstep>
  <scstep>
   <time name="dav">    3.98    3.98</time>
   <time name="total">    8.97    8.98</time>
   <energy>
    <i name="e_fr_energy">    -13.22324889 </i>
    <i name="e_wo_entrp">    -13.22780705 </i>
    <i name="e_0_energy">    -13.22476827 </i>
   </energy>
  </scstep>
  <scstep>
   <time name="dav">    3.46    3.46</time>
   <time name="total">    8.49    8.49</time>
   <energy>
    <i name="e_fr_energy">    -13.68502034 </i>
    <i name="e_wo_entrp">    -13.69104174 </i>
    <i name="e_0_energy">    -13.68702748 </i>
   </energy>
  </scstep>
  <scstep>
   <time name="dav">    4.50    4.50</time>
   <time name="total">    9.53    9.53</time>
   <energy>
    <i name="e_fr_energy">    -13.88087992 </i>
    <i name="e_wo_entrp">    -13.88467327 </i>
    <i name="e_0_energy">    -13.88214437 </i>
   </energy>
  </scstep>
  <scstep>
   <time name="dav">    3.99    3.99</time>
   <time name="total">    9.05    9.05</time>
   <energy>
    <i name="e_fr_energy">    -14.00052813 </i>
    <i name="e_wo_entrp">    -14.00684150 </i>
    <i name="e_0_energy">    -14.00263259 </i>
   </energy>
  </scstep>
  <scstep>
   <time name="dav">    2.95    2.95</time>
   <time name="total">    7.99    7.99</time>
   <energy>
    <i name="e_fr_energy">    -14.06841555 </i>
    <i name="e_wo_entrp">    -14.07295964 </i>
    <i name="e_0_energy">    -14.06993025 </i>
   </energy>
  </scstep>
  <scstep>
   <time name="dav">    2.94    2.94</time>
   <time name="total">    7.97    7.97</time>
   <energy>
    <i name="e_fr_energy">    -14.12037010 </i>
    <i name="e_wo_entrp">    -14.12570400 </i>
    <i name="e_0_energy">    -14.12214807 </i>
   </energy>
  </scstep>
  <scstep>
   <time name="dav">    4.51    4.51</time>
   <time name="total">    9.54    9.55</time>
   <energy>
    <i name="e_fr_energy">    -14.15568665 </i>
    <i name="e_wo_entrp">    -14.16062276 </i>
    <i name="e_0_energy">    -14.15733202 </i>
   </energy>
  </scstep>
  <scstep>
   <time name="dav">    3.47    3.47</time>
   <time name="total">    8.50    8.51</time>
   <energy>
    <i name="e_fr_energy">    -14.18210243 </i>
    <i name="e_wo_entrp">    -14.18746439 </i>
    <i name="e_0_energy">    -14.18388975 </i>
   </energy>
  </scstep>
  <scstep>
   <time name="dav">    3.47    3.47</time>
   <time name="total">    8.51    8.51</time>
   <energy>
    <i name="e_fr_energy">    -14.19162190 </i>
    <i name="e_wo_entrp">    -14.19672764 </i>
    <i name="e_0_energy">    -14.19332381 </i>
   </energy>
  </scstep>
  <scstep>
   <time name="dav">    3.99    3.99</time>
   <time name="total">    9.00    9.00</time>
   <energy>
    <i name="e_fr_energy">    -14.20112212 </i>
    <i name="e_wo_entrp">    -14.20630797 </i>
    <i name="e_0_energy">    -14.20285074 </i>
   </energy>
  </scstep>
  <scstep>
   <time name="dav">    3.99    3.99</time>
   <time name="total">    9.02    9.03</time>
   <energy>
    <i name="e_fr_energy">    -14.20498618 </i>
    <i name="e_wo_entrp">    -14.21010013 </i>
    <i name="e_0_energy">    -14.20669083 </i>
   </energy>
  </scstep>
  <scstep>
   <time name="dav">    4.00    4.00</time>
   <time name="total">    9.04    9.04</time>
   <energy>
    <i name="e_fr_energy">    -14.20776989 </i>
    <i name="e_wo_entrp">    -14.21281513 </i>
    <i name="e_0_energy">    -14.20945164 </i>
   </energy>
  </scstep>
  <scstep>
   <time name="dav">    5.06    5.06</time>
   <time name="total">   10.05   10.07</time>
   <energy>
    <i name="e_fr_energy">    -14.20886540 </i>
    <i name="e_wo_entrp">    -14.21405007 </i>
    <i name="e_0_energy">    -14.21059363 </i>
   </energy>
  </scstep>
  <scstep>
   <time name="dav">    4.52    4.53</time>
   <time name="total">    9.54    9.55</time>
   <energy>
    <i name="e_fr_energy">    -14.21021316 </i>
    <i name="e_wo_entrp">    -14.21532853 </i>
    <i name="e_0_energy">    -14.21191828 </i>
   </energy>
  </scstep>
  <scstep>
   <time name="dav">    3.47    3.47</time>
   <time name="total">    8.49    8.49</time>
   <energy>
    <i name="e_fr_energy">    -14.21127241 </i>
    <i name="e_wo_entrp">    -14.21639410 </i>
    <i name="e_0_energy">    -14.21297964 </i>
   </energy>
  </scstep>
  <scstep>
   <time name="dav">    5.03    5.03</time>
   <time name="total">   10.04   10.04</time>
   <energy>
    <i name="e_fr_energy">    -14.21221836 </i>
    <i name="e_wo_entrp">    -14.21734419 </i>
    <i name="e_0_energy">    -14.21392697 </i>
   </energy>
  </scstep>
  <scstep>
   <time name="dav">    5.03    5.03</time>
   <time name="total">   10.06   10.06</time>
   <energy>
    <i name="e_fr_energy">    -14.21264384 </i>
    <i name="e_wo_entrp">    -14.21776979 </i>
    <i name="e_0_energy">    -14.21435249 </i>
   </energy>
  </scstep>
  <scstep>
   <time name="dav">    5.04    5.04</time>
   <time name="total">   10.04   10.05</time>
   <energy>
    <i name="e_fr_energy">    -14.21273452 </i>
    <i name="e_wo_entrp">    -14.21785712 </i>
    <i name="e_0_energy">    -14.21444205 </i>
   </energy>
  </scstep>
  <scstep>
   <time name="dav">    2.94    2.94</time>
   <time name="total">    7.96    7.96</time>
   <energy>
    <i name="e_fr_energy">    -14.21284077 </i>
    <i name="e_wo_entrp">    -14.21796355 </i>
    <i name="e_0_energy">    -14.21454837 </i>
   </energy>
  </scstep>
  <scstep>
   <time name="dav">    2.95    2.95</time>
   <time name="total">    7.98    7.99</time>
   <energy>
    <i name="e_fr_energy">    -14.21294111 </i>
    <i name="e_wo_entrp">    -14.21806546 </i>
    <i name="e_0_energy">    -14.21464923 </i>
   </energy>
  </scstep>
  <scstep>
   <time name="dav">    4.00    4.00</time>
   <time name="total">    8.99    9.00</time>
   <energy>
    <i name="e_fr_energy">    -14.21300679 </i>
    <i name="e_wo_entrp">    -14.21813027 </i>
    <i name="e_0_energy">    -14.21471461 </i>
   </energy>
  </scstep>
  <scstep>
   <time name="dav">    3.98    3.98</time>
   <time name="total">    9.02    9.02</time>
   <energy>
    <i name="e_fr_energy">    -14.21303568 </i>
    <i name="e_wo_entrp">    -14.21815890 </i>
    <i name="e_0_energy">    -14.21474342 </i>
   </energy>
  </scstep>
  <scstep>
   <time name="dav">    5.06    5.06</time>
   <time name="total">   10.08   10.08</time>
   <energy>
    <i name="e_fr_energy">    -14.21305018 </i>
    <i name="e_wo_entrp">    -14.21817360 </i>
    <i name="e_0_energy">    -14.21475799 </i>
   </energy>
  </scstep>
  <scstep>
   <time name="dav">    5.03    5.03</time>
   <time name="total">   10.06   10.06</time>
   <energy>
    <i name="e_fr_energy">    -14.21305257 </i>
    <i name="e_wo_entrp">    -14.21817599 </i>
    <i name="e_0_energy">    -14.21476038 </i>
   </energy>
  </scstep>
  <scstep>
   <time name="dav">    3.99    4.00</time>
   <time name="total">    9.00    9.01</time>
   <energy>
    <i name="e_fr_energy">    -14.21305373 </i>
    <i name="e_wo_entrp">    -14.21817719 </i>
    <i name="e_0_energy">    -14.21476155 </i>
   </energy>
  </scstep>
  <scstep>
   <time name="dav">    4.52    4.52</time>
   <time name="total">    8.30    8.30</time>
   <energy>
    <i name="alphaZ">      0.00774942 </i>
    <i name="ewald">    144.61349475 </i>
    <i name="hartreedc">   -538.37797236 </i>
    <i name="XCdc">     34.02559416 </i>
    <i name="pawpsdc">    545.46324721 </i>
    <i name="pawaedc">   -547.55941490 </i>
    <i name="eentropy">      0.00512354 </i>
    <i name="bandstr">   -109.72017078 </i>
    <i name="atom">    457.32929435 </i>
    <i name="e_fr_energy">    -14.21305460 </i>
    <i name="e_wo_entrp">    -14.21817814 </i>
    <i name="e_0_energy">    -14.21476245 </i>
   </energy>
  </scstep>
  <structure>
   <crystal>
    <varray name="basis" >
     <v>      30.00000000       0.00000000       0.00000000 </v>
     <v>       0.00000000      31.52647800       0.00000000 </v>
     <v>       0.00000000       0.00000000      30.59630900 </v>
    </varray>
    <i name="volume">  28937.81587709 </i>
    <varray name="rec_basis" >
     <v>       0.03333333       0.00000000       0.00000000 </v>
     <v>       0.00000000       0.03171937       0.00000000 </v>
     <v>       0.00000000       0.00000000       0.03268368 </v>
    </varray>
   </crystal>
   <varray name="positions" >
    <v>       0.50000000       0.50000000       0.50971785 </v>
    <v>       0.50000000       0.52437498       0.49026868 </v>
    <v>       0.50000000       0.47562502       0.49026868 </v>
   </varray>
  </structure>
  <varray name="forces" >
   <v>       0.00000000      -0.00000000       0.00545106 </v>
   <v>      -0.00000000       0.00595831      -0.00272548 </v>
   <v>      -0.00000000      -0.00595831      -0.00272558 </v>
  </varray>
  <varray name="stress" >
   <v>      -0.00501562      -0.00000000       0.00000000 </v>
   <v>       0.00000000      -0.00369256      -0.00000000 </v>
   <v>       0.00000000       0.00000000      -0.00408284 </v>
  </varray>
  <energy>
   <i name="e_fr_energy">    -14.22283620 </i>
   <i name="e_wo_entrp">    -14.22795973 </i>
   <i name="e_0_energy">    -14.22454404 </i>
  </energy>
  <time name="totalsc">  324.05  324.30</time>
 </calculation>
 <calculation>
  <scstep>
   <time name="dav">    2.94    2.94</time>
   <time name="total">    7.94    7.96</time>
   <energy>
    <i name="alphaZ">      0.00774942 </i>
    <i name="ewald">    144.59232816 </i>
    <i name="hartreedc">   -538.36427506 </i>
    <i name="XCdc">     34.02498507 </i>
    <i name="pawpsdc">    545.46325949 </i>
    <i name="pawaedc">   -547.55942715 </i>
    <i name="eentropy">      0.00512961 </i>
    <i name="bandstr">   -109.71056352 </i>
    <i name="atom">    457.32929435 </i>
    <i name="e_fr_energy">    -14.21151963 </i>
    <i name="e_wo_entrp">    -14.21664924 </i>
    <i name="e_0_energy">    -14.21322950 </i>
   </energy>
  </scstep>
  <scstep>
   <time name="dav">    4.52    4.52</time>
   <time name="total">    9.53    9.54</time>
   <energy>
    <i name="e_fr_energy">    -14.21028536 </i>
    <i name="e_wo_entrp">    -14.21540759 </i>
    <i name="e_0_energy">    -14.21199277 </i>
   </energy>
  </scstep>
  <scstep>
   <time name="dav">    5.04    5.04</time>
   <time name="total">   10.06   10.06</time>
   <energy>
    <i name="e_fr_energy">    -14.21212733 </i>
    <i name="e_wo_entrp">    -14.21725209 </i>
    <i name="e_0_energy">    -14.21383558 </i>
   </energy>
  </scstep>
  <scstep>
   <time name="dav">    4.51    4.51</time>
   <time name="total">    9.54    9.54</time>
   <energy>
    <i name="e_fr_energy">    -14.20703029 </i>
    <i name="e_wo_entrp">    -14.21214072 </i>
    <i name="e_0_energy">    -14.20873377 </i>
   </energy>
  </scstep>
  <scstep>
   <time name="dav">    3.98    3.98</time>
   <time name="total">    9.00    9.01</time>
   <energy>
    <i name="e_fr_energy">    -14.20842972 </i>
    <i name="e_wo_entrp">    -14.21354793 </i>
    <i name="e_0_energy">    -14.21013579 </i>
   </energy>
  </scstep>
  <scstep>
   <time name="dav">    2.94    2.94</time>
   <time name="total">    7.97    7.97</time>
   <energy>
    <i name="e_fr_energy">    -14.21122901 </i>
    <i name="e_wo_entrp">    -14.21635259 </i>
    <i name="e_0_energy">    -14.21293687 </i>
   </energy>
  </scstep>
  <scstep>
   <time name="dav">    2.94    2.94</time>
   <time name="total">    7.94    7.94</time>
   <energy>
    <i name="e_fr_energy">    -14.21166329 </i>
    <i name="e_wo_entrp">    -14.21678453 </i>
    <i name="e_0_energy">    -14.21337037 </i>
   </energy>
  </scstep>
  <scstep>
   <time name="dav">    2.94    2.94</time>
   <time name="total">    7.97    7.97</time>
   <energy>
    <i name="e_fr_energy">    -14.21196394 </i>
    <i name="e_wo_entrp">    -14.21708871 </i>
    <i name="e_0_energy">    -14.21367220 </i>
   </energy>
  </scstep>
  <scstep>
   <time name="dav">    4.50    4.50</time>
   <time name="total">    9.51    9.52</time>
   <energy>
    <i name="e_fr_energy">    -14.21194719 </i>
    <i name="e_wo_entrp">    -14.21706696 </i>
    <i name="e_0_energy">    -14.21365378 </i>
   </energy>
  </scstep>
  <scstep>
   <time name="dav">    2.94    2.94</time>
   <time name="total">    7.94    7.95</time>
   <energy>
    <i name="e_fr_energy">    -14.21213723 </i>
    <i name="e_wo_entrp">    -14.21726365 </i>
    <i name="e_0_energy">    -14.21384603 </i>
   </energy>
  </scstep>
  <scstep>
   <time name="dav">    2.94    2.94</time>
   <time name="total">    7.96    7.96</time>
   <energy>
    <i name="e_fr_energy">    -14.21251935 </i>
    <i name="e_wo_entrp">    -14.21764146 </i>
    <i name="e_0_energy">    -14.21422672 </i>
   </energy>
  </scstep>
  <scstep>
   <time name="dav">    2.93    2.94</time>
   <time name="total">    7.94    7.94</time>
   <energy>
    <i name="e_fr_energy">    -14.21267540 </i>
    <i name="e_wo_entrp">    -14.21779790 </i>
    <i name="e_0_energy">    -14.21438290 </i>
   </energy>
  </scstep>
  <scstep>
   <time name="dav">    3.46    3.46</time>
   <time name="total">    8.51    8.52</time>
   <energy>
    <i name="e_fr_energy">    -14.21280469 </i>
    <i name="e_wo_entrp">    -14.21792934 </i>
    <i name="e_0_energy">    -14.21451291 </i>
   </energy>
  </scstep>
  <scstep>
   <time name="dav">    2.94    2.94</time>
   <time name="total">    7.95    7.96</time>
   <energy>
    <i name="e_fr_energy">    -14.21290838 </i>
    <i name="e_wo_entrp">    -14.21803162 </i>
    <i name="e_0_energy">    -14.21461613 </i>
   </energy>
  </scstep>
  <scstep>
   <time name="dav">    2.94    2.94</time>
   <time name="total">    7.98    7.98</time>
   <energy>
    <i name="e_fr_energy">    -14.21296090 </i>
    <i name="e_wo_entrp">    -14.21808479 </i>
    <i name="e_0_energy">    -14.21466886 </i>
   </energy>
  </scstep>
  <scstep>
   <time name="dav">    3.47    3.47</time>
   <time name="total">    8.51    8.51</time>
   <energy>
    <i name="e_fr_energy">    -14.21299448 </i>
    <i name="e_wo_entrp">    -14.21811790 </i>
    <i name="e_0_energy">    -14.21470228 </i>
   </energy>
  </scstep>
  <scstep>
   <time name="dav">    3.47    3.47</time>
   <time name="total">    8.48    8.49</time>
   <energy>
    <i name="e_fr_energy">    -14.21301033 </i>
    <i name="e_wo_entrp">    -14.21813370 </i>
    <i name="e_0_energy">    -14.21471812 </i>
   </energy>
  </scstep>
  <scstep>
   <time name="dav">    3.98    3.99</time>
   <time name="total">    8.98    8.98</time>
   <energy>
    <i name="e_fr_energy">    -14.21301705 </i>
    <i name="e_wo_entrp">    -14.21814068 </i>
    <i name="e_0_energy">    -14.21472492 </i>
   </energy>
  </scstep>
  <scstep>
   <time name="dav">    3.98    3.98</time>
   <time name="total">    8.98    8.98</time>
   <energy>
    <i name="e_fr_energy">    -14.21302231 </i>
    <i name="e_wo_entrp">    -14.21814589 </i>
    <i name="e_0_energy">    -14.21473017 </i>
   </energy>
  </scstep>
  <scstep>
   <time name="dav">    4.51    4.51</time>
   <time name="total">    9.52    9.52</time>
   <energy>
    <i name="e_fr_energy">    -14.21302491 </i>
    <i name="e_wo_entrp">    -14.21814846 </i>
    <i name="e_0_energy">    -14.21473276 </i>
   </energy>
  </scstep>
  <scstep>
   <time name="dav">    3.98    3.98</time>
   <time name="total">    9.01    9.01</time>
   <energy>
    <i name="e_fr_energy">    -14.21302883 </i>
    <i name="e_wo_entrp">    -14.21815234 </i>
    <i name="e_0_energy">    -14.21473667 </i>
   </energy>
  </scstep>
  <scstep>
   <time name="dav">    3.98    3.98</time>
   <time name="total">    8.99    8.99</time>
   <energy>
    <i name="e_fr_energy">    -14.21302997 </i>
    <i name="e_wo_entrp">    -14.21815350 </i>
    <i name="e_0_energy">    -14.21473782 </i>
   </energy>
  </scstep>
  <scstep>
   <time name="dav">    5.04    5.04</time>
   <time name="total">    8.85    8.85</time>
   <energy>
    <i name="alphaZ">      0.00774942 </i>
    <i name="ewald">    144.59232816 </i>
    <i name="hartreedc">   -538.36082275 </i>
    <i name="XCdc">     34.02473127 </i>
    <i name="pawpsdc">    545.38581057 </i>
    <i name="pawaedc">   -547.48177645 </i>
    <i name="eentropy">      0.00512355 </i>
    <i name="bandstr">   -109.71546836 </i>
    <i name="atom">    457.32929435 </i>
    <i name="e_fr_energy">    -14.21303025 </i>
    <i name="e_wo_entrp">    -14.21815380 </i>
    <i name="e_0_energy">    -14.21473810 </i>
   </energy>
  </scstep>
  <structure>
   <crystal>
    <varray name="basis" >
     <v>      30.00000000       0.00000000       0.00000000 </v>
     <v>       0.00000000      31.52647800       0.00000000 </v>
     <v>       0.00000000       0.00000000      30.59630900 </v>
    </varray>
    <i name="volume">  28937.81587709 </i>
    <varray name="rec_basis" >
     <v>       0.03333333       0.00000000       0.00000000 </v>
     <v>       0.00000000       0.03171937       0.00000000 </v>
     <v>       0.00000000       0.00000000       0.03268368 </v>
    </varray>
   </crystal>
   <varray name="positions" >
    <v>       0.50050000       0.50000000       0.50971785 </v>
    <v>       0.50000000       0.52437498       0.49026868 </v>
    <v>       0.50000000       0.47562502       0.49026868 </v>
   </varray>
  </structure>
  <varray name="forces" >
   <v>      -0.00018588      -0.00000000      -0.00274916 </v>
   <v>       0.00009293       0.00244084       0.00137463 </v>
   <v>       0.00009295      -0.00244084       0.00137453 </v>
  </varray>
  <varray name="stress" >
   <v>      -0.00485423      -0.00000000      -0.00015148 </v>
   <v>      -0.00000000      -0.00373750      -0.00000000 </v>
   <v>      -0.00015148      -0.00000000      -0.00441171 </v>
  </varray>
  <energy>
   <i name="e_fr_energy">    -14.22281187 </i>
   <i name="e_wo_entrp">    -14.22793542 </i>
   <i name="e_0_energy">    -14.22451972 </i>
  </energy>
  <time name="totalsc">  211.44  211.56</time>
 </calculation>
 <calculation>
  <scstep>
   <time name="dav">    2.94    2.94</time>
   <time name="total">    7.92    7.92</time>
   <energy>
    <i name="alphaZ">      0.00774942 </i>
    <i name="ewald">    144.59232816 </i>
    <i name="hartreedc">   -538.34125126 </i>
    <i name="XCdc">     34.02376065 </i>
    <i name="pawpsdc">    545.38580813 </i>
    <i name="pawaedc">   -547.48177400 </i>
    <i name="eentropy">      0.00514729 </i>
    <i name="bandstr">   -109.72802686 </i>
    <i name="atom">    457.32929435 </i>
    <i name="e_fr_energy">    -14.20696412 </i>
    <i name="e_wo_entrp">    -14.21211141 </i>
    <i name="e_0_energy">    -14.20867988 </i>
   </energy>
  </scstep>
  <scstep>
   <time name="dav">    4.00    4.00</time>
   <time name="total">    9.02    9.02</time>
   <energy>
    <i name="e_fr_energy">    -14.04404889 </i>
    <i name="e_wo_entrp">    -14.04985040 </i>
    <i name="e_0_energy">    -14.04598273 </i>
   </energy>
  </scstep>
  <scstep>
   <time name="dav">    5.04    5.04</time>
   <time name="total">   10.06   10.06</time>
   <energy>
    <i name="e_fr_energy">    -14.05435834 </i>
    <i name="e_wo_entrp">    -14.05937936 </i>
    <i name="e_0_energy">    -14.05603202 </i>
   </energy>
  </scstep>
  <scstep>
   <time name="dav">    4.00    4.00</time>
   <time name="total">    9.03    9.03</time>
   <energy>
    <i name="e_fr_energy">    -14.05496526 </i>
    <i name="e_wo_entrp">    -14.06041301 </i>
    <i name="e_0_energy">    -14.05678118 </i>
   </energy>
  </scstep>
  <scstep>
   <time name="dav">    4.01    4.01</time>
   <time name="total">    9.04    9.04</time>
   <energy>
    <i name="e_fr_energy">    -14.10034310 </i>
    <i name="e_wo_entrp">    -14.10539297 </i>
    <i name="e_0_energy">    -14.10202639 </i>
   </energy>
  </scstep>
  <scstep>
   <time name="dav">    3.98    3.98</time>
   <time name="total">    8.96    8.96</time>
   <energy>
    <i name="e_fr_energy">    -14.17739022 </i>
    <i name="e_wo_entrp">    -14.18261101 </i>
    <i name="e_0_energy">    -14.17913048 </i>
   </energy>
  </scstep>
  <scstep>
   <time name="dav">    3.99    3.99</time>
   <time name="total">    9.03    9.04</time>
   <energy>
    <i name="e_fr_energy">    -14.18705782 </i>
    <i name="e_wo_entrp">    -14.19218497 </i>
    <i name="e_0_energy">    -14.18876687 </i>
   </energy>
  </scstep>
  <scstep>
   <time name="dav">    3.47    3.47</time>
   <time name="total">    8.51    8.51</time>
   <energy>
    <i name="e_fr_energy">    -14.19888365 </i>
    <i name="e_wo_entrp">    -14.20403040 </i>
    <i name="e_0_energy">    -14.20059924 </i>
   </energy>
  </scstep>
  <scstep>
   <time name="dav">    5.04    5.04</time>
   <time name="total">   10.03   10.03</time>
   <energy>
    <i name="e_fr_energy">    -14.20653088 </i>
    <i name="e_wo_entrp">    -14.21164552 </i>
    <i name="e_0_energy">    -14.20823576 </i>
   </energy>
  </scstep>
  <scstep>
   <time name="dav">    3.99    3.99</time>
   <time name="total">    9.02    9.02</time>
   <energy>
    <i name="e_fr_energy">    -14.20928288 </i>
    <i name="e_wo_entrp">    -14.21441855 </i>
    <i name="e_0_energy">    -14.21099477 </i>
   </energy>
  </scstep>
  <scstep>
   <time name="dav">    3.47    3.47</time>
   <time name="total">    8.50    8.51</time>
   <energy>
    <i name="e_fr_energy">    -14.21076508 </i>
    <i name="e_wo_entrp">    -14.21588343 </i>
    <i name="e_0_energy">    -14.21247120 </i>
   </energy>
  </scstep>
  <scstep>
   <time name="dav">    4.00    4.00</time>
   <time name="total">    9.01    9.01</time>
   <energy>
    <i name="e_fr_energy">    -14.21155741 </i>
    <i name="e_wo_entrp">    -14.21667615 </i>
    <i name="e_0_energy">    -14.21326366 </i>
   </energy>
  </scstep>
  <scstep>
   <time name="dav">    3.99    3.99</time>
   <time name="total">    9.01    9.01</time>
   <energy>
    <i name="e_fr_energy">    -14.21226065 </i>
    <i name="e_wo_entrp">    -14.21738661 </i>
    <i name="e_0_energy">    -14.21396931 </i>
   </energy>
  </scstep>
  <scstep>
   <time name="dav">    4.02    4.02</time>
   <time name="total">    9.00    9.01</time>
   <energy>
    <i name="e_fr_energy">    -14.21261445 </i>
    <i name="e_wo_entrp">    -14.21774013 </i>
    <i name="e_0_energy">    -14.21432301 </i>
   </energy>
  </scstep>
  <scstep>
   <time name="dav">    5.05    5.05</time>
   <time name="total">   10.08   10.08</time>
   <energy>
    <i name="e_fr_energy">    -14.21284174 </i>
    <i name="e_wo_entrp">    -14.21796378 </i>
    <i name="e_0_energy">    -14.21454909 </i>
   </energy>
  </scstep>
  <scstep>
   <time name="dav">    4.00    4.00</time>
   <time name="total">    8.99    8.99</time>
   <energy>
    <i name="e_fr_energy">    -14.21293193 </i>
    <i name="e_wo_entrp">    -14.21805535 </i>
    <i name="e_0_energy">    -14.21463974 </i>
   </energy>
  </scstep>
  <scstep>
   <time name="dav">    4.00    4.00</time>
   <time name="total">    8.98    8.99</time>
   <energy>
    <i name="e_fr_energy">    -14.21298092 </i>
    <i name="e_wo_entrp">    -14.21810388 </i>
    <i name="e_0_energy">    -14.21468858 </i>
   </energy>
  </scstep>
  <scstep>
   <time name="dav">    4.52    4.52</time>
   <time name="total">    9.51    9.52</time>
   <energy>
    <i name="e_fr_energy">    -14.21299894 </i>
    <i name="e_wo_entrp">    -14.21812232 </i>
    <i name="e_0_energy">    -14.21470673 </i>
   </energy>
  </scstep>
  <scstep>
   <time name="dav">    5.03    5.03</time>
   <time name="total">   10.05   10.05</time>
   <energy>
    <i name="e_fr_energy">    -14.21301191 </i>
    <i name="e_wo_entrp">    -14.21813559 </i>
    <i name="e_0_energy">    -14.21471980 </i>
   </energy>
  </scstep>
  <scstep>
   <time name="dav">    5.05    5.05</time>
   <time name="total">   10.07   10.07</time>
   <energy>
    <i name="e_fr_energy">    -14.21302213 </i>
    <i name="e_wo_entrp">    -14.21814575 </i>
    <i name="e_0_energy">    -14.21473000 </i>
   </energy>
  </scstep>
  <scstep>
   <time name="dav">    5.04    5.04</time>
   <time name="total">   10.05   10.06</time>
   <energy>
    <i name="e_fr_energy">    -14.21302645 </i>
    <i name="e_wo_entrp">    -14.21814998 </i>
    <i name="e_0_energy">    -14.21473430 </i>
   </energy>
  </scstep>
  <scstep>
   <time name="dav">    4.52    4.52</time>
   <time name="total">    9.49    9.50</time>
   <energy>
    <i name="e_fr_energy">    -14.21302846 </i>
    <i name="e_wo_entrp">    -14.21815197 </i>
    <i name="e_0_energy">    -14.21473629 </i>
   </energy>
  </scstep>
  <scstep>
   <time name="dav">    4.53    4.53</time>
   <time name="total">    9.55    9.55</time>
   <energy>
    <i name="e_fr_energy">    -14.21302983 </i>
    <i name="e_wo_entrp">    -14.21815339 </i>
    <i name="e_0_energy">    -14.21473768 </i>
   </energy>
  </scstep>
  <scstep>
   <time name="dav">    4.52    4.52</time>
   <time name="total">    8.33    8.33</time>
   <energy>
    <i name="alphaZ">      0.00774942 </i>
    <i name="ewald">    144.59232816 </i>
    <i name="hartreedc">   -538.36084627 </i>
    <i name="XCdc">     34.02473141 </i>
    <i name="pawpsdc">    545.38580512 </i>
    <i name="pawaedc">   -547.48177094 </i>
    <i name="eentropy">      0.00512354 </i>
    <i name="bandstr">   -109.71544538 </i>
    <i name="atom">    457.32929435 </i>
    <i name="e_fr_energy">    -14.21303060 </i>
    <i name="e_wo_entrp">    -14.21815414 </i>
    <i name="e_0_energy">    -14.21473845 </i>
   </energy>
  </scstep>
  <structure>
   <crystal>
    <varray name="basis" >
     <v>      30.00000000       0.00000000       0.00000000 </v>
     <v>       0.00000000      31.52647800       0.00000000 </v>
     <v>       0.00000000       0.00000000      30.59630900 </v>
    </varray>
    <i name="volume">  28937.81587709 </i>
    <varray name="rec_basis" >
     <v>       0.03333333       0.00000000       0.00000000 </v>
     <v>       0.00000000       0.03171937       0.00000000 </v>
     <v>       0.00000000       0.00000000       0.03268368 </v>
    </varray>
   </crystal>
   <varray name="positions" >
    <v>       0.49950000       0.50000000       0.50971785 </v>
    <v>       0.50000000       0.52437498       0.49026868 </v>
    <v>       0.50000000       0.47562502       0.49026868 </v>
   </varray>
  </structure>
  <varray name="forces" >
   <v>       0.00018440      -0.00000000      -0.00275223 </v>
   <v>      -0.00009219       0.00244115       0.00137617 </v>
   <v>      -0.00009221      -0.00244115       0.00137606 </v>
  </varray>
  <varray name="stress" >
   <v>      -0.00485449      -0.00000000       0.00015145 </v>
   <v>      -0.00000000      -0.00373767      -0.00000000 </v>
   <v>       0.00015145      -0.00000000      -0.00441193 </v>
  </varray>
  <energy>
   <i name="e_fr_energy">    -14.22281222 </i>
   <i name="e_wo_entrp">    -14.22793575 </i>
   <i name="e_0_energy">    -14.22452006 </i>
  </energy>
  <time name="totalsc">  233.58  233.73</time>
 </calculation>
 <calculation>
  <scstep>
   <time name="dav">    2.94    2.94</time>
   <time name="total">    7.89    7.90</time>
   <energy>
    <i name="alphaZ">      0.00774942 </i>
    <i name="ewald">    144.63202935 </i>
    <i name="hartreedc">   -538.35811148 </i>
    <i name="XCdc">     34.02469944 </i>
    <i name="pawpsdc">    545.38580999 </i>
    <i name="pawaedc">   -547.48177580 </i>
    <i name="eentropy">      0.00513287 </i>
    <i name="bandstr">   -109.74862096 </i>
    <i name="atom">    457.32929435 </i>
    <i name="e_fr_energy">    -14.20379283 </i>
    <i name="e_wo_entrp">    -14.20892570 </i>
    <i name="e_0_energy">    -14.20550379 </i>
   </energy>
  </scstep>
  <scstep>
   <time name="dav">    4.52    4.53</time>
   <time name="total">    9.58    9.58</time>
   <energy>
    <i name="e_fr_energy">    -14.08493432 </i>
    <i name="e_wo_entrp">    -14.09024213 </i>
    <i name="e_0_energy">    -14.08670359 </i>
   </energy>
  </scstep>
  <scstep>
   <time name="dav">    5.03    5.03</time>
   <time name="total">   10.07   10.08</time>
   <energy>
    <i name="e_fr_energy">    -14.17957356 </i>
    <i name="e_wo_entrp">    -14.18458349 </i>
    <i name="e_0_energy">    -14.18124354 </i>
   </energy>
  </scstep>
  <scstep>
   <time name="dav">    3.98    3.98</time>
   <time name="total">    8.98    8.98</time>
   <energy>
    <i name="e_fr_energy">    -14.18486311 </i>
    <i name="e_wo_entrp">    -14.19005962 </i>
    <i name="e_0_energy">    -14.18659528 </i>
   </energy>
  </scstep>
  <scstep>
   <time name="dav">    3.98    3.98</time>
   <time name="total">    9.03    9.03</time>
   <energy>
    <i name="e_fr_energy">    -14.17799854 </i>
    <i name="e_wo_entrp">    -14.18311223 </i>
    <i name="e_0_energy">    -14.17970310 </i>
   </energy>
  </scstep>
  <scstep>
   <time name="dav">    3.48    3.48</time>
   <time name="total">    8.50    8.50</time>
   <energy>
    <i name="e_fr_energy">    -14.19260126 </i>
    <i name="e_wo_entrp">    -14.19772321 </i>
    <i name="e_0_energy">    -14.19430858 </i>
   </energy>
  </scstep>
  <scstep>
   <time name="dav">    3.99    4.00</time>
   <time name="total">    9.01    9.02</time>
   <energy>
    <i name="e_fr_energy">    -14.20073480 </i>
    <i name="e_wo_entrp">    -14.20588140 </i>
    <i name="e_0_energy">    -14.20245034 </i>
   </energy>
  </scstep>
  <scstep>
   <time name="dav">    4.01    4.01</time>
   <time name="total">    9.03    9.03</time>
   <energy>
    <i name="e_fr_energy">    -14.20311228 </i>
    <i name="e_wo_entrp">    -14.20821938 </i>
    <i name="e_0_energy">    -14.20481465 </i>
   </energy>
  </scstep>
  <scstep>
   <time name="dav">    3.46    3.47</time>
   <time name="total">    8.46    8.46</time>
   <energy>
    <i name="e_fr_energy">    -14.20389148 </i>
    <i name="e_wo_entrp">    -14.20900583 </i>
    <i name="e_0_energy">    -14.20559626 </i>
   </energy>
  </scstep>
  <scstep>
   <time name="dav">    3.48    3.48</time>
   <time name="total">    8.47    8.47</time>
   <energy>
    <i name="e_fr_energy">    -14.20456291 </i>
    <i name="e_wo_entrp">    -14.20968357 </i>
    <i name="e_0_energy">    -14.20626980 </i>
   </energy>
  </scstep>
  <scstep>
   <time name="dav">    3.47    3.48</time>
   <time name="total">    8.48    8.48</time>
   <energy>
    <i name="e_fr_energy">    -14.20508886 </i>
    <i name="e_wo_entrp">    -14.21021554 </i>
    <i name="e_0_energy">    -14.20679775 </i>
   </energy>
  </scstep>
  <scstep>
   <time name="dav">    2.94    2.94</time>
   <time name="total">    7.95    7.95</time>
   <energy>
    <i name="e_fr_energy">    -14.20550097 </i>
    <i name="e_wo_entrp">    -14.21062461 </i>
    <i name="e_0_energy">    -14.20720885 </i>
   </energy>
  </scstep>
  <scstep>
   <time name="dav">    5.05    5.05</time>
   <time name="total">   10.05   10.05</time>
   <energy>
    <i name="e_fr_energy">    -14.20579309 </i>
    <i name="e_wo_entrp">    -14.21091568 </i>
    <i name="e_0_energy">    -14.20750062 </i>
   </energy>
  </scstep>
  <scstep>
   <time name="dav">    4.02    4.02</time>
   <time name="total">    9.03    9.04</time>
   <energy>
    <i name="e_fr_energy">    -14.20592213 </i>
    <i name="e_wo_entrp">    -14.21104693 </i>
    <i name="e_0_energy">    -14.20763040 </i>
   </energy>
  </scstep>
  <scstep>
   <time name="dav">    4.53    4.53</time>
   <time name="total">    9.53    9.53</time>
   <energy>
    <i name="e_fr_energy">    -14.20598206 </i>
    <i name="e_wo_entrp">    -14.21110538 </i>
    <i name="e_0_energy">    -14.20768983 </i>
   </energy>
  </scstep>
  <scstep>
   <time name="dav">    5.06    5.06</time>
   <time name="total">   10.08   10.08</time>
   <energy>
    <i name="e_fr_energy">    -14.20600688 </i>
    <i name="e_wo_entrp">    -14.21113021 </i>
    <i name="e_0_energy">    -14.20771466 </i>
   </energy>
  </scstep>
  <scstep>
   <time name="dav">    5.06    5.06</time>
   <time name="total">   10.09   10.10</time>
   <energy>
    <i name="e_fr_energy">    -14.20601747 </i>
    <i name="e_wo_entrp">    -14.21114081 </i>
    <i name="e_0_energy">    -14.20772525 </i>
   </energy>
  </scstep>
  <scstep>
   <time name="dav">    5.05    5.05</time>
   <time name="total">   10.08   10.08</time>
   <energy>
    <i name="e_fr_energy">    -14.20602553 </i>
    <i name="e_wo_entrp">    -14.21114912 </i>
    <i name="e_0_energy">    -14.20773339 </i>
   </energy>
  </scstep>
  <scstep>
   <time name="dav">    5.05    5.05</time>
   <time name="total">   10.06   10.06</time>
   <energy>
    <i name="e_fr_energy">    -14.20602873 </i>
    <i name="e_wo_entrp">    -14.21115227 </i>
    <i name="e_0_energy">    -14.20773658 </i>
   </energy>
  </scstep>
  <scstep>
   <time name="dav">    4.53    4.53</time>
   <time name="total">    9.53    9.53</time>
   <energy>
    <i name="e_fr_energy">    -14.20603103 </i>
    <i name="e_wo_entrp">    -14.21115455 </i>
    <i name="e_0_energy">    -14.20773887 </i>
   </energy>
  </scstep>
  <scstep>
   <time name="dav">    4.01    4.01</time>
   <time name="total">    9.05    9.06</time>
   <energy>
    <i name="e_fr_energy">    -14.20603338 </i>
    <i name="e_wo_entrp">    -14.21115687 </i>
    <i name="e_0_energy">    -14.20774121 </i>
   </energy>
  </scstep>
  <scstep>
   <time name="dav">    5.04    5.04</time>
   <time name="total">   10.04   10.04</time>
   <energy>
    <i name="e_fr_energy">    -14.20603473 </i>
    <i name="e_wo_entrp">    -14.21115822 </i>
    <i name="e_0_energy">    -14.20774256 </i>
   </energy>
  </scstep>
  <scstep>
   <time name="dav">    5.04    5.04</time>
   <time name="total">    8.87    8.87</time>
   <energy>
    <i name="alphaZ">      0.00774942 </i>
    <i name="ewald">    144.63202935 </i>
    <i name="hartreedc">   -538.38565519 </i>
    <i name="XCdc">     34.02622328 </i>
    <i name="pawpsdc">    545.58487331 </i>
    <i name="pawaedc">   -547.68132040 </i>
    <i name="eentropy">      0.00512349 </i>
    <i name="bandstr">   -109.72435301 </i>
    <i name="atom">    457.32929435 </i>
    <i name="e_fr_energy">    -14.20603541 </i>
    <i name="e_wo_entrp">    -14.21115890 </i>
    <i name="e_0_energy">    -14.20774324 </i>
   </energy>
  </scstep>
  <structure>
   <crystal>
    <varray name="basis" >
     <v>      30.00000000       0.00000000       0.00000000 </v>
     <v>       0.00000000      31.52647800       0.00000000 </v>
     <v>       0.00000000       0.00000000      30.59630900 </v>
    </varray>
    <i name="volume">  28937.81587709 </i>
    <varray name="rec_basis" >
     <v>       0.03333333       0.00000000       0.00000000 </v>
     <v>       0.00000000       0.03171937       0.00000000 </v>
     <v>       0.00000000       0.00000000       0.03268368 </v>
    </varray>
   </crystal>
   <varray name="positions" >
    <v>       0.50000000       0.50047579       0.50971785 </v>
    <v>       0.50000000       0.52437498       0.49026868 </v>
    <v>       0.50000000       0.47562502       0.49026868 </v>
   </varray>
  </structure>
  <varray name="forces" >
   <v>       0.00000084      -0.94583204       0.04307741 </v>
   <v>      -0.00000043       0.49427314      -0.38807029 </v>
   <v>      -0.00000041       0.45155890       0.34499288 </v>
  </varray>
  <varray name="stress" >
   <v>      -0.00472896      -0.00000000       0.00000000 </v>
   <v>      -0.00000000      -0.00289044      -0.03111168 </v>
   <v>       0.00000000      -0.03111168      -0.00272122 </v>
  </varray>
  <energy>
   <i name="e_fr_energy">    -14.21581728 </i>
   <i name="e_wo_entrp">    -14.22094076 </i>
   <i name="e_0_energy">    -14.21752511 </i>
  </energy>
  <time name="totalsc">  224.31  224.44</time>
 </calculation>
 <calculation>
  <scstep>
   <time name="dav">    2.95    2.95</time>
   <time name="total">    7.91    7.93</time>
   <energy>
    <i name="alphaZ">      0.00774942 </i>
    <i name="ewald">    144.63202935 </i>
    <i name="hartreedc">   -538.34968738 </i>
    <i name="XCdc">     34.02439407 </i>
    <i name="pawpsdc">    545.58488746 </i>
    <i name="pawaedc">   -547.68133467 </i>
    <i name="eentropy">      0.00513753 </i>
    <i name="bandstr">   -109.75548096 </i>
    <i name="atom">    457.32929435 </i>
    <i name="e_fr_energy">    -14.20301083 </i>
    <i name="e_wo_entrp">    -14.20814835 </i>
    <i name="e_0_energy">    -14.20472334 </i>
   </energy>
  </scstep>
  <scstep>
   <time name="dav">    4.53    4.53</time>
   <time name="total">    9.54    9.54</time>
   <energy>
    <i name="e_fr_energy">    -14.01322104 </i>
    <i name="e_wo_entrp">    -14.01766229 </i>
    <i name="e_0_energy">    -14.01470145 </i>
   </energy>
  </scstep>
  <scstep>
   <time name="dav">    2.95    2.96</time>
   <time name="total">    7.97    7.98</time>
   <energy>
    <i name="e_fr_energy">    -13.85041381 </i>
    <i name="e_wo_entrp">    -13.85550689 </i>
    <i name="e_0_energy">    -13.85211150 </i>
   </energy>
  </scstep>
  <scstep>
   <time name="dav">    4.51    4.51</time>
   <time name="total">    9.56    9.56</time>
   <energy>
    <i name="e_fr_energy">    -14.08289310 </i>
    <i name="e_wo_entrp">    -14.08815336 </i>
    <i name="e_0_energy">    -14.08464652 </i>
   </energy>
  </scstep>
  <scstep>
   <time name="dav">    3.47    3.47</time>
   <time name="total">    8.53    8.53</time>
   <energy>
    <i name="e_fr_energy">    -14.13342207 </i>
    <i name="e_wo_entrp">    -14.13861043 </i>
    <i name="e_0_energy">    -14.13515152 </i>
   </energy>
  </scstep>
  <scstep>
   <time name="dav">    4.51    4.51</time>
   <time name="total">    9.54    9.55</time>
   <energy>
    <i name="e_fr_energy">    -14.16932573 </i>
    <i name="e_wo_entrp">    -14.17437008 </i>
    <i name="e_0_energy">    -14.17100718 </i>
   </energy>
  </scstep>
  <scstep>
   <time name="dav">    4.53    4.53</time>
   <time name="total">    9.55    9.57</time>
   <energy>
    <i name="e_fr_energy">    -14.17428257 </i>
    <i name="e_wo_entrp">    -14.17952403 </i>
    <i name="e_0_energy">    -14.17602973 </i>
   </energy>
  </scstep>
  <scstep>
   <time name="dav">    4.00    4.01</time>
   <time name="total">    8.99    8.99</time>
   <energy>
    <i name="e_fr_energy">    -14.18733473 </i>
    <i name="e_wo_entrp">    -14.19244195 </i>
    <i name="e_0_energy">    -14.18903713 </i>
   </energy>
  </scstep>
  <scstep>
   <time name="dav">    2.94    2.94</time>
   <time name="total">    7.97    7.97</time>
   <energy>
    <i name="e_fr_energy">    -14.19251232 </i>
    <i name="e_wo_entrp">    -14.19764005 </i>
    <i name="e_0_energy">    -14.19422156 </i>
   </energy>
  </scstep>
  <scstep>
   <time name="dav">    3.48    3.48</time>
   <time name="total">    8.53    8.54</time>
   <energy>
    <i name="e_fr_energy">    -14.19938405 </i>
    <i name="e_wo_entrp">    -14.20451301 </i>
    <i name="e_0_energy">    -14.20109370 </i>
   </energy>
  </scstep>
  <scstep>
   <time name="dav">    4.51    4.51</time>
   <time name="total">    9.54    9.54</time>
   <energy>
    <i name="e_fr_energy">    -14.20304530 </i>
    <i name="e_wo_entrp">    -14.20816737 </i>
    <i name="e_0_energy">    -14.20475266 </i>
   </energy>
  </scstep>
  <scstep>
   <time name="dav">    3.99    3.99</time>
   <time name="total">    8.98    8.98</time>
   <energy>
    <i name="e_fr_energy">    -14.20427410 </i>
    <i name="e_wo_entrp">    -14.20939745 </i>
    <i name="e_0_energy">    -14.20598189 </i>
   </energy>
  </scstep>
  <scstep>
   <time name="dav">    4.01    4.01</time>
   <time name="total">    8.99    8.99</time>
   <energy>
    <i name="e_fr_energy">    -14.20480979 </i>
    <i name="e_wo_entrp">    -14.20993263 </i>
    <i name="e_0_energy">    -14.20651740 </i>
   </energy>
  </scstep>
  <scstep>
   <time name="dav">    3.46    3.47</time>
   <time name="total">    8.48    8.48</time>
   <energy>
    <i name="e_fr_energy">    -14.20538226 </i>
    <i name="e_wo_entrp">    -14.21050750 </i>
    <i name="e_0_energy">    -14.20709067 </i>
   </energy>
  </scstep>
  <scstep>
   <time name="dav">    2.95    2.95</time>
   <time name="total">    7.96    7.96</time>
   <energy>
    <i name="e_fr_energy">    -14.20560224 </i>
    <i name="e_wo_entrp">    -14.21072570 </i>
    <i name="e_0_energy">    -14.20731006 </i>
   </energy>
  </scstep>
  <scstep>
   <time name="dav">    3.99    4.00</time>
   <time name="total">    9.02    9.03</time>
   <energy>
    <i name="e_fr_energy">    -14.20578872 </i>
    <i name="e_wo_entrp">    -14.21091227 </i>
    <i name="e_0_energy">    -14.20749657 </i>
   </energy>
  </scstep>
  <scstep>
   <time name="dav">    4.01    4.01</time>
   <time name="total">    9.03    9.03</time>
   <energy>
    <i name="e_fr_energy">    -14.20588569 </i>
    <i name="e_wo_entrp">    -14.21100880 </i>
    <i name="e_0_energy">    -14.20759339 </i>
   </energy>
  </scstep>
  <scstep>
   <time name="dav">    5.05    5.05</time>
   <time name="total">   10.05   10.05</time>
   <energy>
    <i name="e_fr_energy">    -14.20593967 </i>
    <i name="e_wo_entrp">    -14.21106289 </i>
    <i name="e_0_energy">    -14.20764741 </i>
   </energy>
  </scstep>
  <scstep>
   <time name="dav">    4.52    4.52</time>
   <time name="total">    9.54    9.54</time>
   <energy>
    <i name="e_fr_energy">    -14.20597651 </i>
    <i name="e_wo_entrp">    -14.21110040 </i>
    <i name="e_0_energy">    -14.20768447 </i>
   </energy>
  </scstep>
  <scstep>
   <time name="dav">    4.01    4.01</time>
   <time name="total">    9.06    9.07</time>
   <energy>
    <i name="e_fr_energy">    -14.20600256 </i>
    <i name="e_wo_entrp">    -14.21112601 </i>
    <i name="e_0_energy">    -14.20771038 </i>
   </energy>
  </scstep>
  <scstep>
   <time name="dav">    5.06    5.06</time>
   <time name="total">   10.06   10.07</time>
   <energy>
    <i name="e_fr_energy">    -14.20602092 </i>
    <i name="e_wo_entrp">    -14.21114439 </i>
    <i name="e_0_energy">    -14.20772874 </i>
   </energy>
  </scstep>
  <scstep>
   <time name="dav">    5.04    5.04</time>
   <time name="total">   10.01   10.02</time>
   <energy>
    <i name="e_fr_energy">    -14.20602871 </i>
    <i name="e_wo_entrp">    -14.21115217 </i>
    <i name="e_0_energy">    -14.20773653 </i>
   </energy>
  </scstep>
  <scstep>
   <time name="dav">    5.05    5.05</time>
   <time name="total">   10.03   10.03</time>
   <energy>
    <i name="e_fr_energy">    -14.20603180 </i>
    <i name="e_wo_entrp">    -14.21115520 </i>
    <i name="e_0_energy">    -14.20773960 </i>
   </energy>
  </scstep>
  <scstep>
   <time name="dav">    4.53    4.53</time>
   <time name="total">    9.55    9.55</time>
   <energy>
    <i name="e_fr_energy">    -14.20603344 </i>
    <i name="e_wo_entrp">    -14.21115691 </i>
    <i name="e_0_energy">    -14.20774127 </i>
   </energy>
  </scstep>
  <scstep>
   <time name="dav">    5.04    5.04</time>
   <time name="total">   10.04   10.04</time>
   <energy>
    <i name="e_fr_energy">    -14.20603480 </i>
    <i name="e_wo_entrp">    -14.21115832 </i>
    <i name="e_0_energy">    -14.20774264 </i>
   </energy>
  </scstep>
  <scstep>
   <time name="dav">    5.06    5.06</time>
   <time name="total">    8.86    8.86</time>
   <energy>
    <i name="alphaZ">      0.00774942 </i>
    <i name="ewald">    144.63202935 </i>
    <i name="hartreedc">   -538.38563353 </i>
    <i name="XCdc">     34.02622371 </i>
    <i name="pawpsdc">    545.58489909 </i>
    <i name="pawaedc">   -547.68134639 </i>
    <i name="eentropy">      0.00512351 </i>
    <i name="bandstr">   -109.72437477 </i>
    <i name="atom">    457.32929435 </i>
    <i name="e_fr_energy">    -14.20603527 </i>
    <i name="e_wo_entrp">    -14.21115878 </i>
    <i name="e_0_energy">    -14.20774311 </i>
   </energy>
  </scstep>
  <structure>
   <crystal>
    <varray name="basis" >
     <v>      30.00000000       0.00000000       0.00000000 </v>
     <v>       0.00000000      31.52647800       0.00000000 </v>
     <v>       0.00000000       0.00000000      30.59630900 </v>
    </varray>
    <i name="volume">  28937.81587709 </i>
    <varray name="rec_basis" >
     <v>       0.03333333       0.00000000       0.00000000 </v>
     <v>       0.00000000       0.03171937       0.00000000 </v>
     <v>       0.00000000       0.00000000       0.03268368 </v>
    </varray>
   </crystal>
   <varray name="positions" >
    <v>       0.50000000       0.49952421       0.50971785 </v>
    <v>       0.50000000       0.52437498       0.49026868 </v>
    <v>       0.50000000       0.47562502       0.49026868 </v>
   </varray>
  </structure>
  <varray name="forces" >
   <v>       0.00000071       0.94583220       0.04307608 </v>
   <v>      -0.00000035      -0.45155867       0.34499353 </v>
   <v>      -0.00000036      -0.49427353      -0.38806962 </v>
  </varray>
  <varray name="stress" >
   <v>      -0.00472920       0.00000001       0.00000001 </v>
   <v>       0.00000001      -0.00289063       0.03111168 </v>
   <v>       0.00000001       0.03111168      -0.00272144 </v>
  </varray>
  <energy>
   <i name="e_fr_energy">    -14.21581714 </i>
   <i name="e_wo_entrp">    -14.22094065 </i>
   <i name="e_0_energy">    -14.21752497 </i>
  </energy>
  <time name="totalsc">  249.59  249.80</time>
 </calculation>
 <calculation>
  <scstep>
   <time name="dav">    2.95    2.95</time>
   <time name="total">    7.85    7.91</time>
   <energy>
    <i name="alphaZ">      0.00774942 </i>
    <i name="ewald">    142.93661573 </i>
    <i name="hartreedc">   -537.66874614 </i>
    <i name="XCdc">     33.99617288 </i>
    <i name="pawpsdc">    545.58489775 </i>
    <i name="pawaedc">   -547.68134502 </i>
    <i name="eentropy">      0.00513803 </i>
    <i name="bandstr">   -108.71696472 </i>
    <i name="atom">    457.32929435 </i>
    <i name="e_fr_energy">    -14.20718771 </i>
    <i name="e_wo_entrp">    -14.21232575 </i>
    <i name="e_0_energy">    -14.20890039 </i>
   </energy>
  </scstep>
  <scstep>
   <time name="dav">    4.53    4.53</time>
   <time name="total">    9.56    9.56</time>
   <energy>
    <i name="e_fr_energy">    -14.06298696 </i>
    <i name="e_wo_entrp">    -14.06827600 </i>
    <i name="e_0_energy">    -14.06474997 </i>
   </energy>
  </scstep>
  <scstep>
   <time name="dav">    4.50    4.51</time>
   <time name="total">    9.51    9.52</time>
   <energy>
    <i name="e_fr_energy">    -14.07851292 </i>
    <i name="e_wo_entrp">    -14.08385531 </i>
    <i name="e_0_energy">    -14.08029372 </i>
   </energy>
  </scstep>
  <scstep>
   <time name="dav">    3.47    3.47</time>
   <time name="total">    8.49    8.49</time>
   <energy>
    <i name="e_fr_energy">    -14.17258477 </i>
    <i name="e_wo_entrp">    -14.17768125 </i>
    <i name="e_0_energy">    -14.17428360 </i>
   </energy>
  </scstep>
  <scstep>
   <time name="dav">    3.99    3.99</time>
   <time name="total">    9.08    9.08</time>
   <energy>
    <i name="e_fr_energy">    -14.18666308 </i>
    <i name="e_wo_entrp">    -14.19171392 </i>
    <i name="e_0_energy">    -14.18834669 </i>
   </energy>
  </scstep>
  <scstep>
   <time name="dav">    3.47    3.47</time>
   <time name="total">    8.51    8.51</time>
   <energy>
    <i name="e_fr_energy">    -14.19432510 </i>
    <i name="e_wo_entrp">    -14.19944988 </i>
    <i name="e_0_energy">    -14.19603336 </i>
   </energy>
  </scstep>
  <scstep>
   <time name="dav">    5.03    5.03</time>
   <time name="total">   10.05   10.05</time>
   <energy>
    <i name="e_fr_energy">    -14.19975176 </i>
    <i name="e_wo_entrp">    -14.20485751 </i>
    <i name="e_0_energy">    -14.20145368 </i>
   </energy>
  </scstep>
  <scstep>
   <time name="dav">    4.00    4.00</time>
   <time name="total">    8.99    9.01</time>
   <energy>
    <i name="e_fr_energy">    -14.20248886 </i>
    <i name="e_wo_entrp">    -14.20762055 </i>
    <i name="e_0_energy">    -14.20419942 </i>
   </energy>
  </scstep>
  <scstep>
   <time name="dav">    4.01    4.01</time>
   <time name="total">    9.05    9.06</time>
   <energy>
    <i name="e_fr_energy">    -14.20459931 </i>
    <i name="e_wo_entrp">    -14.20972291 </i>
    <i name="e_0_energy">    -14.20630718 </i>
   </energy>
  </scstep>
  <scstep>
   <time name="dav">    3.99    3.99</time>
   <time name="total">    9.01    9.01</time>
   <energy>
    <i name="e_fr_energy">    -14.20714756 </i>
    <i name="e_wo_entrp">    -14.21227356 </i>
    <i name="e_0_energy">    -14.20885622 </i>
   </energy>
  </scstep>
  <scstep>
   <time name="dav">    4.53    4.53</time>
   <time name="total">    9.54    9.54</time>
   <energy>
    <i name="e_fr_energy">    -14.20777881 </i>
    <i name="e_wo_entrp">    -14.21289969 </i>
    <i name="e_0_energy">    -14.20948577 </i>
   </energy>
  </scstep>
  <scstep>
   <time name="dav">    4.54    4.54</time>
   <time name="total">    9.54    9.55</time>
   <energy>
    <i name="e_fr_energy">    -14.20796711 </i>
    <i name="e_wo_entrp">    -14.21309005 </i>
    <i name="e_0_energy">    -14.20967476 </i>
   </energy>
  </scstep>
  <scstep>
   <time name="dav">    2.94    2.94</time>
   <time name="total">    7.95    7.95</time>
   <energy>
    <i name="e_fr_energy">    -14.20811867 </i>
    <i name="e_wo_entrp">    -14.21324029 </i>
    <i name="e_0_energy">    -14.20982588 </i>
   </energy>
  </scstep>
  <scstep>
   <time name="dav">    4.00    4.00</time>
   <time name="total">    9.02    9.02</time>
   <energy>
    <i name="e_fr_energy">    -14.20831733 </i>
    <i name="e_wo_entrp">    -14.21344110 </i>
    <i name="e_0_energy">    -14.21002526 </i>
   </energy>
  </scstep>
  <scstep>
   <time name="dav">    2.95    2.95</time>
   <time name="total">    8.00    8.01</time>
   <energy>
    <i name="e_fr_energy">    -14.20839551 </i>
    <i name="e_wo_entrp">    -14.21351968 </i>
    <i name="e_0_energy">    -14.21010356 </i>
   </energy>
  </scstep>
  <scstep>
   <time name="dav">    3.48    3.48</time>
   <time name="total">    8.48    8.49</time>
   <energy>
    <i name="e_fr_energy">    -14.20851656 </i>
    <i name="e_wo_entrp">    -14.21364016 </i>
    <i name="e_0_energy">    -14.21022442 </i>
   </energy>
  </scstep>
  <scstep>
   <time name="dav">    5.06    5.07</time>
   <time name="total">   10.06   10.06</time>
   <energy>
    <i name="e_fr_energy">    -14.20855261 </i>
    <i name="e_wo_entrp">    -14.21367625 </i>
    <i name="e_0_energy">    -14.21026049 </i>
   </energy>
  </scstep>
  <scstep>
   <time name="dav">    5.04    5.04</time>
   <time name="total">   10.07   10.07</time>
   <energy>
    <i name="e_fr_energy">    -14.20857524 </i>
    <i name="e_wo_entrp">    -14.21369861 </i>
    <i name="e_0_energy">    -14.21028303 </i>
   </energy>
  </scstep>
  <scstep>
   <time name="dav">    5.04    5.04</time>
   <time name="total">   10.11   10.12</time>
   <energy>
    <i name="e_fr_energy">    -14.20858627 </i>
    <i name="e_wo_entrp">    -14.21370968 </i>
    <i name="e_0_energy">    -14.21029407 </i>
   </energy>
  </scstep>
  <scstep>
   <time name="dav">    5.05    5.06</time>
   <time name="total">   10.07   10.08</time>
   <energy>
    <i name="e_fr_energy">    -14.20859095 </i>
    <i name="e_wo_entrp">    -14.21371442 </i>
    <i name="e_0_energy">    -14.21029877 </i>
   </energy>
  </scstep>
  <scstep>
   <time name="dav">    5.04    5.04</time>
   <time name="total">   10.08   10.08</time>
   <energy>
    <i name="e_fr_energy">    -14.20859448 </i>
    <i name="e_wo_entrp">    -14.21371794 </i>
    <i name="e_0_energy">    -14.21030230 </i>
   </energy>
  </scstep>
  <scstep>
   <time name="dav">    3.99    3.99</time>
   <time name="total">    9.00    9.02</time>
   <energy>
    <i name="e_fr_energy">    -14.20859607 </i>
    <i name="e_wo_entrp">    -14.21371951 </i>
    <i name="e_0_energy">    -14.21030388 </i>
   </energy>
  </scstep>
  <scstep>
   <time name="dav">    4.01    4.01</time>
   <time name="total">    9.04    9.04</time>
   <energy>
    <i name="e_fr_energy">    -14.20859717 </i>
    <i name="e_wo_entrp">    -14.21372060 </i>
    <i name="e_0_energy">    -14.21030498 </i>
   </energy>
  </scstep>
  <scstep>
   <time name="dav">    5.04    5.05</time>
   <time name="total">    8.84    8.86</time>
   <energy>
    <i name="alphaZ">      0.00774942 </i>
    <i name="ewald">    142.93661573 </i>
    <i name="hartreedc">   -537.01348454 </i>
    <i name="XCdc">     33.95706001 </i>
    <i name="pawpsdc">    539.56340066 </i>
    <i name="pawaedc">   -541.64243046 </i>
    <i name="eentropy">      0.00512344 </i>
    <i name="bandstr">   -109.35192634 </i>
    <i name="atom">    457.32929435 </i>
    <i name="e_fr_energy">    -14.20859773 </i>
    <i name="e_wo_entrp">    -14.21372116 </i>
    <i name="e_0_energy">    -14.21030554 </i>
   </energy>
  </scstep>
  <structure>
   <crystal>
    <varray name="basis" >
     <v>      30.00000000       0.00000000       0.00000000 </v>
     <v>       0.00000000      31.52647800       0.00000000 </v>
     <v>       0.00000000       0.00000000      30.59630900 </v>
    </varray>
    <i name="volume">  28937.81587709 </i>
    <varray name="rec_basis" >
     <v>       0.03333333       0.00000000       0.00000000 </v>
     <v>       0.00000000       0.03171937       0.00000000 </v>
     <v>       0.00000000       0.00000000       0.03268368 </v>
    </varray>
   </crystal>
   <varray name="positions" >
    <v>       0.50000000       0.50000000       0.51020810 </v>
    <v>       0.50000000       0.52437498       0.49026868 </v>
    <v>       0.50000000       0.47562502       0.49026868 </v>
   </varray>
  </structure>
  <varray name="forces" >
   <v>      -0.00000053      -0.00000048      -0.60027633 </v>
   <v>       0.00000025      -0.26205442       0.30013822 </v>
   <v>       0.00000028       0.26205490       0.30013811 </v>
  </varray>
  <varray name="stress" >
   <v>      -0.00503113      -0.00000001       0.00000000 </v>
   <v>      -0.00000001      -0.02610157      -0.00000002 </v>
   <v>       0.00000000      -0.00000002      -0.02470905 </v>
  </varray>
  <energy>
   <i name="e_fr_energy">    -14.21838105 </i>
   <i name="e_wo_entrp">    -14.22350449 </i>
   <i name="e_0_energy">    -14.22008886 </i>
  </energy>
  <time name="totalsc">  232.27  232.62</time>
 </calculation>
 <calculation>
  <scstep>
   <time name="dav">    2.95    2.95</time>
   <time name="total">    7.91    7.98</time>
   <energy>
    <i name="alphaZ">      0.00774942 </i>
    <i name="ewald">    146.29564556 </i>
    <i name="hartreedc">   -538.38475834 </i>
    <i name="XCdc">     34.01389348 </i>
    <i name="pawpsdc">    539.56333037 </i>
    <i name="pawaedc">   -541.64236006 </i>
    <i name="eentropy">      0.00512227 </i>
    <i name="bandstr">   -111.39485663 </i>
    <i name="atom">    457.32929435 </i>
    <i name="e_fr_energy">    -14.20693959 </i>
    <i name="e_wo_entrp">    -14.21206186 </i>
    <i name="e_0_energy">    -14.20864701 </i>
   </energy>
  </scstep>
  <scstep>
   <time name="dav">    3.47    3.47</time>
   <time name="total">    8.54    8.54</time>
   <energy>
    <i name="e_fr_energy">    -13.95921561 </i>
    <i name="e_wo_entrp">    -13.96374882 </i>
    <i name="e_0_energy">    -13.96072668 </i>
   </energy>
  </scstep>
  <scstep>
   <time name="dav">    4.00    4.00</time>
   <time name="total">    9.04    9.04</time>
   <energy>
    <i name="e_fr_energy">    -14.10242399 </i>
    <i name="e_wo_entrp">    -14.10819528 </i>
    <i name="e_0_energy">    -14.10434776 </i>
   </energy>
  </scstep>
  <scstep>
   <time name="dav">    3.99    3.99</time>
   <time name="total">    8.99    9.00</time>
   <energy>
    <i name="e_fr_energy">    -14.12742617 </i>
    <i name="e_wo_entrp">    -14.13199026 </i>
    <i name="e_0_energy">    -14.12894753 </i>
   </energy>
  </scstep>
  <scstep>
   <time name="dav">    3.99    4.00</time>
   <time name="total">    9.01    9.02</time>
   <energy>
    <i name="e_fr_energy">    -14.14255359 </i>
    <i name="e_wo_entrp">    -14.14767813 </i>
    <i name="e_0_energy">    -14.14426177 </i>
   </energy>
  </scstep>
  <scstep>
   <time name="dav">    5.05    5.05</time>
   <time name="total">   10.06   10.07</time>
   <energy>
    <i name="e_fr_energy">    -14.15049732 </i>
    <i name="e_wo_entrp">    -14.15567381 </i>
    <i name="e_0_energy">    -14.15222282 </i>
   </energy>
  </scstep>
  <scstep>
   <time name="dav">    3.99    3.99</time>
   <time name="total">    8.99    8.99</time>
   <energy>
    <i name="e_fr_energy">    -14.16800364 </i>
    <i name="e_wo_entrp">    -14.17313345 </i>
    <i name="e_0_energy">    -14.16971358 </i>
   </energy>
  </scstep>
  <scstep>
   <time name="dav">    4.52    4.52</time>
   <time name="total">    9.51    9.53</time>
   <energy>
    <i name="e_fr_energy">    -14.18160529 </i>
    <i name="e_wo_entrp">    -14.18673360 </i>
    <i name="e_0_energy">    -14.18331473 </i>
   </energy>
  </scstep>
  <scstep>
   <time name="dav">    3.46    3.46</time>
   <time name="total">    8.48    8.48</time>
   <energy>
    <i name="e_fr_energy">    -14.19466877 </i>
    <i name="e_wo_entrp">    -14.19978368 </i>
    <i name="e_0_energy">    -14.19637374 </i>
   </energy>
  </scstep>
  <scstep>
   <time name="dav">    4.00    4.00</time>
   <time name="total">    8.99    8.99</time>
   <energy>
    <i name="e_fr_energy">    -14.20259259 </i>
    <i name="e_wo_entrp">    -14.20769290 </i>
    <i name="e_0_energy">    -14.20429270 </i>
   </energy>
  </scstep>
  <scstep>
   <time name="dav">    4.00    4.00</time>
   <time name="total">    9.00    9.02</time>
   <energy>
    <i name="e_fr_energy">    -14.20517519 </i>
    <i name="e_wo_entrp">    -14.21030517 </i>
    <i name="e_0_energy">    -14.20688519 </i>
   </energy>
  </scstep>
  <scstep>
   <time name="dav">    4.00    4.00</time>
   <time name="total">    8.99    9.00</time>
   <energy>
    <i name="e_fr_energy">    -14.20605369 </i>
    <i name="e_wo_entrp">    -14.21118217 </i>
    <i name="e_0_energy">    -14.20776318 </i>
   </energy>
  </scstep>
  <scstep>
   <time name="dav">    4.02    4.02</time>
   <time name="total">    9.00    9.01</time>
   <energy>
    <i name="e_fr_energy">    -14.20705582 </i>
    <i name="e_wo_entrp">    -14.21217719 </i>
    <i name="e_0_energy">    -14.20876295 </i>
   </energy>
  </scstep>
  <scstep>
   <time name="dav">    4.00    4.00</time>
   <time name="total">    8.97    8.98</time>
[...]
       <r>    -6.6619    -0.0000     4.0000 </r>
       <r>    -6.5685    -0.0000     4.0000 </r>
       <r>    -6.4751     0.0000     4.0000 </r>
       <r>    -6.3817     0.0000     4.0000 </r>
       <r>    -6.2883     0.0000     4.0000 </r>
       <r>    -6.1949     0.0000     4.0000 </r>
       <r>    -6.1014     0.0000     4.0000 </r>
       <r>    -6.0080     0.0000     4.0000 </r>
       <r>    -5.9146     0.0000     4.0000 </r>
       <r>    -5.8212     0.0000     4.0000 </r>
       <r>    -5.7278     0.0000     4.0000 </r>
       <r>    -5.6344     0.0000     4.0000 </r>
       <r>    -5.5410     0.0000     4.0000 </r>
       <r>    -5.4476     0.0000     4.0000 </r>
       <r>    -5.3542     0.0000     4.0000 </r>
       <r>    -5.2608     0.0000     4.0000 </r>
       <r>    -5.1674     0.0000     4.0000 </r>
       <r>    -5.0740     0.0000     4.0000 </r>
       <r>    -4.9806     0.0000     4.0000 </r>
       <r>    -4.8872     0.0000     4.0000 </r>
       <r>    -4.7938     0.0000     4.0000 </r>
       <r>    -4.7004     0.0000     4.0000 </r>
       <r>    -4.6070     0.0000     4.0000 </r>
       <r>    -4.5136     0.0000     4.0000 </r>
       <r>    -4.4202     0.0000     4.0000 </r>
       <r>    -4.3268     0.0000     4.0000 </r>
       <r>    -4.2334     0.0000     4.0000 </r>
       <r>    -4.1400     0.0000     4.0000 </r>
       <r>    -4.0466     0.0000     4.0000 </r>
       <r>    -3.9532     0.0000     4.0000 </r>
       <r>    -3.8598     0.0000     4.0000 </r>
       <r>    -3.7664     0.0000     4.0000 </r>
       <r>    -3.6730     0.0000     4.0000 </r>
       <r>    -3.5796     0.0000     4.0000 </r>
       <r>    -3.4862     0.0000     4.0000 </r>
       <r>    -3.3928     0.0000     4.0000 </r>
       <r>    -3.2994     0.0000     4.0000 </r>
       <r>    -3.2060     0.0000     4.0000 </r>
       <r>    -3.1126     0.0000     4.0000 </r>
       <r>    -3.0192     0.0000     4.0000 </r>
       <r>    -2.9258     0.0000     4.0000 </r>
       <r>    -2.8324     0.0000     4.0000 </r>
       <r>    -2.7390     0.0000     4.0000 </r>
       <r>    -2.6456     0.0000     4.0000 </r>
       <r>    -2.5522     0.0000     4.0000 </r>
       <r>    -2.4588     0.0000     4.0000 </r>
       <r>    -2.3654     0.0000     4.0000 </r>
       <r>    -2.2720     0.0000     4.0000 </r>
       <r>    -2.1786     0.0000     4.0000 </r>
       <r>    -2.0852     0.0000     4.0000 </r>
       <r>    -1.9918     0.0000     4.0000 </r>
       <r>    -1.8984    -0.0000     4.0000 </r>
       <r>    -1.8050    -0.0000     4.0000 </r>
       <r>    -1.7116    -0.0000     4.0000 </r>
       <r>    -1.6182    -0.0000     4.0000 </r>
       <r>    -1.5248    -0.0000     4.0000 </r>
       <r>    -1.4314    -0.0000     4.0000 </r>
       <r>    -1.3380    -0.0002     4.0000 </r>
       <r>    -1.2446    -0.0270     3.9975 </r>
       <r>    -1.1512    -0.3201     3.9676 </r>
       <r>    -1.0578     2.0633     4.1603 </r>
       <r>    -0.9644     7.5214     4.8628 </r>
       <r>    -0.8710     1.8009     5.0310 </r>
       <r>    -0.7776    -0.3086     5.0022 </r>
       <r>    -0.6842    -0.0230     5.0000 </r>
       <r>    -0.5908    -0.0002     5.0000 </r>
       <r>    -0.4974    -0.0000     5.0000 </r>
       <r>    -0.4040    -0.0000     5.0000 </r>
       <r>    -0.3106    -0.0005     5.0000 </r>
       <r>    -0.2172    -0.0424     4.9960 </r>
       <r>    -0.1238    -0.3629     4.9621 </r>
       <r>    -0.0304     2.0515     5.1537 </r>
       <r>     0.0630     8.2265     5.9221 </r>
       <r>     0.1564    34.3078     9.1265 </r>
       <r>     0.2498    31.1385    12.0348 </r>
       <r>     0.3432     0.4234    12.0744 </r>
       <r>     0.4366    -0.7709    12.0024 </r>
       <r>     0.5300    -0.0252    12.0000 </r>
       <r>     0.6234    -0.0001    12.0000 </r>
       <r>     0.7168    -0.0000    12.0000 </r>
       <r>     0.8102    -0.0000    12.0000 </r>
       <r>     0.9036     0.0000    12.0000 </r>
       <r>     0.9970     0.0000    12.0000 </r>
       <r>     1.0904     0.0000    12.0000 </r>
       <r>     1.1838     0.0000    12.0000 </r>
       <r>     1.2772     0.0000    12.0000 </r>
       <r>     1.3706     0.0000    12.0000 </r>
       <r>     1.4640     0.0000    12.0000 </r>
      </set>
      <set comment="spin 2">
       <r>   -26.5562     0.0000     0.0000 </r>
       <r>   -26.4628     0.0000     0.0000 </r>
       <r>   -26.3694     0.0000     0.0000 </r>
       <r>   -26.2760     0.0000     0.0000 </r>
       <r>   -26.1826     0.0000     0.0000 </r>
       <r>   -26.0892    -0.0000    -0.0000 </r>
       <r>   -25.9958    -0.0000    -0.0000 </r>
       <r>   -25.9024    -0.0000    -0.0000 </r>
       <r>   -25.8090    -0.0000    -0.0000 </r>
       <r>   -25.7156    -0.0000    -0.0000 </r>
       <r>   -25.6222    -0.0000    -0.0000 </r>
       <r>   -25.5288    -0.0018    -0.0002 </r>
       <r>   -25.4354    -0.0959    -0.0091 </r>
       <r>   -25.3420    -0.1963    -0.0275 </r>
       <r>   -25.2486     4.8332     0.4240 </r>
       <r>   -25.1552     6.1718     1.0004 </r>
       <r>   -25.0618     0.1594     1.0153 </r>
       <r>   -24.9684    -0.1592     1.0004 </r>
       <r>   -24.8750    -0.0046     1.0000 </r>
       <r>   -24.7816    -0.0000     1.0000 </r>
       <r>   -24.6882    -0.0000     1.0000 </r>
       <r>   -24.5948    -0.0000     1.0000 </r>
       <r>   -24.5014     0.0000     1.0000 </r>
       <r>   -24.4080     0.0000     1.0000 </r>
       <r>   -24.3146     0.0000     1.0000 </r>
       <r>   -24.2212     0.0000     1.0000 </r>
       <r>   -24.1278     0.0000     1.0000 </r>
       <r>   -24.0344     0.0000     1.0000 </r>
       <r>   -23.9410     0.0000     1.0000 </r>
       <r>   -23.8476     0.0000     1.0000 </r>
       <r>   -23.7542     0.0000     1.0000 </r>
       <r>   -23.6608     0.0000     1.0000 </r>
       <r>   -23.5674     0.0000     1.0000 </r>
       <r>   -23.4740     0.0000     1.0000 </r>
       <r>   -23.3806     0.0000     1.0000 </r>
       <r>   -23.2872     0.0000     1.0000 </r>
       <r>   -23.1938     0.0000     1.0000 </r>
       <r>   -23.1004     0.0000     1.0000 </r>
       <r>   -23.0070     0.0000     1.0000 </r>
       <r>   -22.9136     0.0000     1.0000 </r>
       <r>   -22.8202     0.0000     1.0000 </r>
       <r>   -22.7268     0.0000     1.0000 </r>
       <r>   -22.6334     0.0000     1.0000 </r>
       <r>   -22.5400     0.0000     1.0000 </r>
       <r>   -22.4466     0.0000     1.0000 </r>
       <r>   -22.3532     0.0000     1.0000 </r>
       <r>   -22.2598     0.0000     1.0000 </r>
       <r>   -22.1664     0.0000     1.0000 </r>
       <r>   -22.0730     0.0000     1.0000 </r>
       <r>   -21.9796     0.0000     1.0000 </r>
       <r>   -21.8862     0.0000     1.0000 </r>
       <r>   -21.7928     0.0000     1.0000 </r>
       <r>   -21.6994     0.0000     1.0000 </r>
       <r>   -21.6060     0.0000     1.0000 </r>
       <r>   -21.5126     0.0000     1.0000 </r>
       <r>   -21.4192     0.0000     1.0000 </r>
       <r>   -21.3258     0.0000     1.0000 </r>
       <r>   -21.2324     0.0000     1.0000 </r>
       <r>   -21.1390     0.0000     1.0000 </r>
       <r>   -21.0456     0.0000     1.0000 </r>
       <r>   -20.9522     0.0000     1.0000 </r>
       <r>   -20.8588     0.0000     1.0000 </r>
       <r>   -20.7654     0.0000     1.0000 </r>
       <r>   -20.6720     0.0000     1.0000 </r>
       <r>   -20.5786     0.0000     1.0000 </r>
       <r>   -20.4852     0.0000     1.0000 </r>
       <r>   -20.3918     0.0000     1.0000 </r>
       <r>   -20.2984     0.0000     1.0000 </r>
       <r>   -20.2050     0.0000     1.0000 </r>
       <r>   -20.1116     0.0000     1.0000 </r>
       <r>   -20.0182     0.0000     1.0000 </r>
       <r>   -19.9248     0.0000     1.0000 </r>
       <r>   -19.8314     0.0000     1.0000 </r>
       <r>   -19.7380     0.0000     1.0000 </r>
       <r>   -19.6446     0.0000     1.0000 </r>
       <r>   -19.5512     0.0000     1.0000 </r>
       <r>   -19.4578     0.0000     1.0000 </r>
       <r>   -19.3644     0.0000     1.0000 </r>
       <r>   -19.2710     0.0000     1.0000 </r>
       <r>   -19.1776     0.0000     1.0000 </r>
       <r>   -19.0842     0.0000     1.0000 </r>
       <r>   -18.9908     0.0000     1.0000 </r>
       <r>   -18.8974     0.0000     1.0000 </r>
       <r>   -18.8040     0.0000     1.0000 </r>
       <r>   -18.7106     0.0000     1.0000 </r>
       <r>   -18.6172     0.0000     1.0000 </r>
       <r>   -18.5238     0.0000     1.0000 </r>
       <r>   -18.4304     0.0000     1.0000 </r>
       <r>   -18.3370     0.0000     1.0000 </r>
       <r>   -18.2436     0.0000     1.0000 </r>
       <r>   -18.1502     0.0000     1.0000 </r>
       <r>   -18.0568     0.0000     1.0000 </r>
       <r>   -17.9634     0.0000     1.0000 </r>
       <r>   -17.8700     0.0000     1.0000 </r>
       <r>   -17.7766     0.0000     1.0000 </r>
       <r>   -17.6832     0.0000     1.0000 </r>
       <r>   -17.5898     0.0000     1.0000 </r>
       <r>   -17.4964     0.0000     1.0000 </r>
       <r>   -17.4030     0.0000     1.0000 </r>
       <r>   -17.3096     0.0000     1.0000 </r>
       <r>   -17.2162     0.0000     1.0000 </r>
       <r>   -17.1228     0.0000     1.0000 </r>
       <r>   -17.0294     0.0000     1.0000 </r>
       <r>   -16.9360     0.0000     1.0000 </r>
       <r>   -16.8426     0.0000     1.0000 </r>
       <r>   -16.7491     0.0000     1.0000 </r>
       <r>   -16.6557     0.0000     1.0000 </r>
       <r>   -16.5623     0.0000     1.0000 </r>
       <r>   -16.4689     0.0000     1.0000 </r>
       <r>   -16.3755     0.0000     1.0000 </r>
       <r>   -16.2821     0.0000     1.0000 </r>
       <r>   -16.1887     0.0000     1.0000 </r>
       <r>   -16.0953     0.0000     1.0000 </r>
       <r>   -16.0019     0.0000     1.0000 </r>
       <r>   -15.9085     0.0000     1.0000 </r>
       <r>   -15.8151     0.0000     1.0000 </r>
       <r>   -15.7217     0.0000     1.0000 </r>
       <r>   -15.6283     0.0000     1.0000 </r>
       <r>   -15.5349     0.0000     1.0000 </r>
       <r>   -15.4415     0.0000     1.0000 </r>
       <r>   -15.3481     0.0000     1.0000 </r>
       <r>   -15.2547     0.0000     1.0000 </r>
       <r>   -15.1613     0.0000     1.0000 </r>
       <r>   -15.0679     0.0000     1.0000 </r>
       <r>   -14.9745     0.0000     1.0000 </r>
       <r>   -14.8811     0.0000     1.0000 </r>
       <r>   -14.7877     0.0000     1.0000 </r>
       <r>   -14.6943     0.0000     1.0000 </r>
       <r>   -14.6009     0.0000     1.0000 </r>
       <r>   -14.5075     0.0000     1.0000 </r>
       <r>   -14.4141     0.0000     1.0000 </r>
       <r>   -14.3207     0.0000     1.0000 </r>
       <r>   -14.2273     0.0000     1.0000 </r>
       <r>   -14.1339     0.0000     1.0000 </r>
       <r>   -14.0405     0.0000     1.0000 </r>
       <r>   -13.9471     0.0000     1.0000 </r>
       <r>   -13.8537    -0.0000     1.0000 </r>
       <r>   -13.7603    -0.0000     1.0000 </r>
       <r>   -13.6669    -0.0000     1.0000 </r>
       <r>   -13.5735    -0.0000     1.0000 </r>
       <r>   -13.4801    -0.0000     1.0000 </r>
       <r>   -13.3867    -0.0000     1.0000 </r>
       <r>   -13.2933    -0.0030     0.9997 </r>
       <r>   -13.1999    -0.1277     0.9878 </r>
       <r>   -13.1065    -0.0380     0.9842 </r>
       <r>   -13.0131     5.5880     1.5062 </r>
       <r>   -12.9197     5.4790     2.0179 </r>
       <r>   -12.8263    -0.0664     2.0117 </r>
       <r>   -12.7329    -0.1226     2.0003 </r>
       <r>   -12.6395    -0.0028     2.0000 </r>
       <r>   -12.5461    -0.0000     2.0000 </r>
       <r>   -12.4527    -0.0000     2.0000 </r>
       <r>   -12.3593    -0.0000     2.0000 </r>
       <r>   -12.2659     0.0000     2.0000 </r>
       <r>   -12.1725     0.0000     2.0000 </r>
       <r>   -12.0791     0.0000     2.0000 </r>
       <r>   -11.9857     0.0000     2.0000 </r>
       <r>   -11.8923     0.0000     2.0000 </r>
       <r>   -11.7989     0.0000     2.0000 </r>
       <r>   -11.7055     0.0000     2.0000 </r>
       <r>   -11.6121     0.0000     2.0000 </r>
       <r>   -11.5187     0.0000     2.0000 </r>
       <r>   -11.4253     0.0000     2.0000 </r>
       <r>   -11.3319     0.0000     2.0000 </r>
       <r>   -11.2385     0.0000     2.0000 </r>
       <r>   -11.1451     0.0000     2.0000 </r>
       <r>   -11.0517     0.0000     2.0000 </r>
       <r>   -10.9583     0.0000     2.0000 </r>
       <r>   -10.8649     0.0000     2.0000 </r>
       <r>   -10.7715     0.0000     2.0000 </r>
       <r>   -10.6781     0.0000     2.0000 </r>
       <r>   -10.5847     0.0000     2.0000 </r>
       <r>   -10.4913     0.0000     2.0000 </r>
       <r>   -10.3979     0.0000     2.0000 </r>
       <r>   -10.3045     0.0000     2.0000 </r>
       <r>   -10.2111     0.0000     2.0000 </r>
       <r>   -10.1177    -0.0000     2.0000 </r>
       <r>   -10.0243    -0.0000     2.0000 </r>
       <r>    -9.9309    -0.0000     2.0000 </r>
       <r>    -9.8375    -0.0000     2.0000 </r>
       <r>    -9.7441    -0.0000     2.0000 </r>
       <r>    -9.6507    -0.0000     2.0000 </r>
       <r>    -9.5573    -0.0034     1.9997 </r>
       <r>    -9.4639    -0.1358     1.9870 </r>
       <r>    -9.3705     0.0088     1.9878 </r>
       <r>    -9.2771     5.7505     2.5249 </r>
       <r>    -9.1837     5.3103     3.0209 </r>
       <r>    -9.0903    -0.1064     3.0110 </r>
       <r>    -8.9969    -0.1150     3.0002 </r>
       <r>    -8.9035    -0.0025     3.0000 </r>
       <r>    -8.8101    -0.0000     3.0000 </r>
       <r>    -8.7167    -0.0000     3.0000 </r>
       <r>    -8.6233    -0.0000     3.0000 </r>
       <r>    -8.5299     0.0000     3.0000 </r>
       <r>    -8.4365     0.0000     3.0000 </r>
       <r>    -8.3431     0.0000     3.0000 </r>
       <r>    -8.2497     0.0000     3.0000 </r>
       <r>    -8.1563     0.0000     3.0000 </r>
       <r>    -8.0629     0.0000     3.0000 </r>
       <r>    -7.9695    -0.0000     3.0000 </r>
       <r>    -7.8761    -0.0000     3.0000 </r>
       <r>    -7.7827    -0.0000     3.0000 </r>
       <r>    -7.6893    -0.0000     3.0000 </r>
       <r>    -7.5959    -0.0000     3.0000 </r>
       <r>    -7.5025    -0.0000     3.0000 </r>
       <r>    -7.4091    -0.0069     2.9994 </r>
       <r>    -7.3157    -0.1954     2.9811 </r>
       <r>    -7.2223     0.4327     3.0215 </r>
       <r>    -7.1289     6.6913     3.6465 </r>
       <r>    -7.0355     4.1394     4.0331 </r>
       <r>    -6.9421    -0.2804     4.0069 </r>
       <r>    -6.8487    -0.0729     4.0001 </r>
       <r>    -6.7553    -0.0011     4.0000 </r>
       <r>    -6.6619    -0.0000     4.0000 </r>
       <r>    -6.5685    -0.0000     4.0000 </r>
       <r>    -6.4751    -0.0000     4.0000 </r>
       <r>    -6.3817     0.0000     4.0000 </r>
       <r>    -6.2883     0.0000     4.0000 </r>
       <r>    -6.1949     0.0000     4.0000 </r>
       <r>    -6.1014     0.0000     4.0000 </r>
       <r>    -6.0080     0.0000     4.0000 </r>
       <r>    -5.9146     0.0000     4.0000 </r>
       <r>    -5.8212     0.0000     4.0000 </r>
       <r>    -5.7278     0.0000     4.0000 </r>
       <r>    -5.6344     0.0000     4.0000 </r>
       <r>    -5.5410     0.0000     4.0000 </r>
       <r>    -5.4476     0.0000     4.0000 </r>
       <r>    -5.3542     0.0000     4.0000 </r>
       <r>    -5.2608     0.0000     4.0000 </r>
       <r>    -5.1674     0.0000     4.0000 </r>
       <r>    -5.0740     0.0000     4.0000 </r>
       <r>    -4.9806     0.0000     4.0000 </r>
       <r>    -4.8872     0.0000     4.0000 </r>
       <r>    -4.7938     0.0000     4.0000 </r>
       <r>    -4.7004     0.0000     4.0000 </r>
       <r>    -4.6070     0.0000     4.0000 </r>
       <r>    -4.5136     0.0000     4.0000 </r>
       <r>    -4.4202     0.0000     4.0000 </r>
       <r>    -4.3268     0.0000     4.0000 </r>
       <r>    -4.2334     0.0000     4.0000 </r>
       <r>    -4.1400     0.0000     4.0000 </r>
       <r>    -4.0466     0.0000     4.0000 </r>
       <r>    -3.9532     0.0000     4.0000 </r>
       <r>    -3.8598     0.0000     4.0000 </r>
       <r>    -3.7664     0.0000     4.0000 </r>
       <r>    -3.6730     0.0000     4.0000 </r>
       <r>    -3.5796     0.0000     4.0000 </r>
       <r>    -3.4862     0.0000     4.0000 </r>
       <r>    -3.3928     0.0000     4.0000 </r>
       <r>    -3.2994     0.0000     4.0000 </r>
       <r>    -3.2060     0.0000     4.0000 </r>
       <r>    -3.1126     0.0000     4.0000 </r>
       <r>    -3.0192     0.0000     4.0000 </r>
       <r>    -2.9258     0.0000     4.0000 </r>
       <r>    -2.8324     0.0000     4.0000 </r>
       <r>    -2.7390     0.0000     4.0000 </r>
       <r>    -2.6456     0.0000     4.0000 </r>
       <r>    -2.5522     0.0000     4.0000 </r>
       <r>    -2.4588     0.0000     4.0000 </r>
       <r>    -2.3654     0.0000     4.0000 </r>
       <r>    -2.2720     0.0000     4.0000 </r>
       <r>    -2.1786     0.0000     4.0000 </r>
       <r>    -2.0852     0.0000     4.0000 </r>
       <r>    -1.9918     0.0000     4.0000 </r>
       <r>    -1.8984    -0.0000     4.0000 </r>
       <r>    -1.8050    -0.0000     4.0000 </r>
       <r>    -1.7116    -0.0000     4.0000 </r>
       <r>    -1.6182    -0.0000     4.0000 </r>
       <r>    -1.5248    -0.0000     4.0000 </r>
       <r>    -1.4314    -0.0000     4.0000 </r>
       <r>    -1.3380    -0.0002     4.0000 </r>
       <r>    -1.2446    -0.0237     3.9978 </r>
       <r>    -1.1512    -0.3112     3.9687 </r>
       <r>    -1.0578     1.8546     4.1419 </r>
       <r>    -0.9644     7.5241     4.8447 </r>
       <r>    -0.8710     2.0073     5.0321 </r>
       <r>    -0.7776    -0.3179     5.0025 </r>
       <r>    -0.6842    -0.0261     5.0000 </r>
       <r>    -0.5908    -0.0002     5.0000 </r>
       <r>    -0.4974    -0.0000     5.0000 </r>
       <r>    -0.4040    -0.0000     5.0000 </r>
       <r>    -0.3106    -0.0007     4.9999 </r>
       <r>    -0.2172    -0.0524     4.9950 </r>
       <r>    -0.1238    -0.3625     4.9612 </r>
       <r>    -0.0304     2.3893     5.1844 </r>
       <r>     0.0630     8.8415     6.0102 </r>
       <r>     0.1564    36.1717     9.3886 </r>
       <r>     0.2498    28.9029    12.0882 </r>
       <r>     0.3432    -0.2612    12.0638 </r>
       <r>     0.4366    -0.6644    12.0017 </r>
       <r>     0.5300    -0.0185    12.0000 </r>
       <r>     0.6234    -0.0001    12.0000 </r>
       <r>     0.7168    -0.0000    12.0000 </r>
       <r>     0.8102    -0.0000    12.0000 </r>
       <r>     0.9036     0.0000    12.0000 </r>
       <r>     0.9970     0.0000    12.0000 </r>
       <r>     1.0904     0.0000    12.0000 </r>
       <r>     1.1838     0.0000    12.0000 </r>
       <r>     1.2772     0.0000    12.0000 </r>
       <r>     1.3706     0.0000    12.0000 </r>
       <r>     1.4640     0.0000    12.0000 </r>
      </set>
     </set>
    </array>
   </total>
  </dos>
 </calculation>
 <structure name="finalpos" >
  <crystal>
   <varray name="basis" >
    <v>      30.00000000       0.00000000       0.00000000 </v>
    <v>       0.00000000      31.52647800       0.00000000 </v>
    <v>       0.00000000       0.00000000      30.59630900 </v>
   </varray>
   <i name="volume">  28937.81587709 </i>
   <varray name="rec_basis" >
    <v>       0.03333333       0.00000000       0.00000000 </v>
    <v>       0.00000000       0.03171937       0.00000000 </v>
    <v>       0.00000000       0.00000000       0.03268368 </v>
   </varray>
  </crystal>
  <varray name="positions" >
   <v>       0.50000000       0.50000000       0.50971785 </v>
   <v>       0.50000000       0.52437498       0.49026868 </v>
   <v>       0.50000000       0.47562502       0.48977843 </v>
  </varray>
 </structure>
</modeling>
